SAMPLE ID;IGSN;EXPEDITION ID;REFERENCES;LATITUDE;LONGITUDE;LOC PREC;MIN ELEVATION;MAX ELEVATION;TECTONIC SETTING;MIN AGE;AGE;MAX AGE;METHOD;ANALYZED MATERIAL;ROCK TYPE;ROCK NAME;MINERAL;SIO2;SIO2 Units;SIO2 Method;TIO2;TIO2 Units;TIO2 Method;AL2O3;AL2O3 Units;AL2O3 Method;CR2O3;CR2O3 Units;CR2O3 Method;FE2O3;FE2O3 Units;FE2O3 Method;FE2O3T;FE2O3T Units;FE2O3T Method;FEO;FEO Units;FEO Method;FEOT;FEOT Units;FEOT Method;NIO;NIO Units;NIO Method;MNO;MNO Units;MNO Method;MGO;MGO Units;MGO Method;CAO;CAO Units;CAO Method;SRO;SRO Units;SRO Method;NA2O;NA2O Units;NA2O Method;K2O;K2O Units;K2O Method;P2O5;P2O5 Units;P2O5 Method;BAO;BAO Units;BAO Method;LOI;LOI Units;LOI Method;H2O;H2O Units;H2O Method;H2O_M;H2O_M Units;H2O_M Method;H2O_P;H2O_P Units;H2O_P Method;SO3;SO3 Units;SO3 Method;COO;COO Units;COO Method;MN;MN Units;MN Method;NI;NI Units;NI Method;CO;CO Units;CO Method;CU;CU Units;CU Method;CD;CD Units;CD Method;ZN;ZN Units;ZN Method;AS;AS Units;AS Method;AG;AG Units;AG Method;S;S Units;S Method;ZRO2;ZRO2 Units;ZRO2 Method;AL;AL Units;AL Method;CA;CA Units;CA Method;SR87_SR86;SR87_SR86 Units;SR87_SR86 Method;SR87_SR86_INI;SR87_SR86_INI Units;SR87_SR86_INI Method;RB87_SR86;RB87_SR86 Units;RB87_SR86 Method;ND143_ND144;ND143_ND144 Units;ND143_ND144 Method;ND143_ND144_INI;ND143_ND144_INI Units;ND143_ND144_INI Method;SM147_ND144;SM147_ND144 Units;SM147_ND144 Method;E_ND;E_ND Units;E_ND Method;E_ND_INI;E_ND_INI Units;E_ND_INI Method;PB204_PB206;PB204_PB206 Units;PB204_PB206 Method;PB206_PB204;PB206_PB204 Units;PB206_PB204 Method;PB206_PB204_INI;PB206_PB204_INI Units;PB206_PB204_INI Method;PB207_PB204;PB207_PB204 Units;PB207_PB204 Method;PB207_PB204_INI;PB207_PB204_INI Units;PB207_PB204_INI Method;PB207_PB206;PB207_PB206 Units;PB207_PB206 Method;PB208_PB204;PB208_PB204 Units;PB208_PB204 Method;PB208_PB204_INI;PB208_PB204_INI Units;PB208_PB204_INI Method;PB208_PB206;PB208_PB206 Units;PB208_PB206 Method;HF176_HF177;HF176_HF177 Units;HF176_HF177 Method;RE187_OS188;RE187_OS188 Units;RE187_OS188 Method;OS187_OS188;OS187_OS188 Units;OS187_OS188 Method;OS187_OS188_INI;OS187_OS188_INI Units;OS187_OS188_INI Method;G_OS;G_OS Units;G_OS Method;G_OS_INI;G_OS_INI Units;G_OS_INI Method;ND143_ND144_INI;ND143_ND144_INI Units;ND143_ND144_INI Method;PB206_PB204_INI;PB206_PB204_INI Units;PB206_PB204_INI Method;PB207_PB204_INI;PB207_PB204_INI Units;PB207_PB204_INI Method;PB208_PB204_INI;PB208_PB204_INI Units;PB208_PB204_INI Method;SR87_SR86_INI;SR87_SR86_INI Units;SR87_SR86_INI Method;HE;HE Units;HE Method;HE3;HE3 Units;HE3 Method;HE3_HE4_R_RA;HE3_HE4_R_RA Units;HE3_HE4_R_RA Method;AR36;AR36 Units;AR36 Method;AR40;AR40 Units;AR40 Method;AR40_AR36;AR40_AR36 Units;AR40_AR36 Method;NE20;NE20 Units;NE20 Method;NE20_NE22;NE20_NE22 Units;NE20_NE22 Method;NE21_NE22;NE21_NE22 Units;NE21_NE22 Method;LA;LA Units;LA Method;CE;CE Units;CE Method;PR;PR Units;PR Method;ND;ND Units;ND Method;SM;SM Units;SM Method;EU;EU Units;EU Method;GD;GD Units;GD Method;TB;TB Units;TB Method;DY;DY Units;DY Method;HO;HO Units;HO Method;ER;ER Units;ER Method;TM;TM Units;TM Method;YB;YB Units;YB Method;LU;LU Units;LU Method;CO2;CO2 Units;CO2 Method;F;F Units;F Method;CL;CL Units;CL Method;U238_PB204;U238_PB204 Units;U238_PB204 Method;TH230_TH232;TH230_TH232 Units;TH230_TH232 Method;RA226_ACTIVITY;RA226_ACTIVITY Units;RA226_ACTIVITY Method;PB210_RA226;PB210_RA226 Units;PB210_RA226 Method;PB210_ACTIVITY;PB210_ACTIVITY Units;PB210_ACTIVITY Method;AG;AG Units;AG Method;AL;AL Units;AL Method;AS;AS Units;AS Method;AU;AU Units;AU Method;B;B Units;B Method;BA;BA Units;BA Method;BE;BE Units;BE Method;BI;BI Units;BI Method;CA;CA Units;CA Method;CD;CD Units;CD Method;CO;CO Units;CO Method;CR;CR Units;CR Method;CS;CS Units;CS Method;CU;CU Units;CU Method;GA;GA Units;GA Method;GER;GER Units;GER Method;HF;HF Units;HF Method;INDIUM;INDIUM Units;INDIUM Method;IR;IR Units;IR Method;K;K Units;K Method;LI;LI Units;LI Method;MN;MN Units;MN Method;MO;MO Units;MO Method;NA;NA Units;NA Method;NB;NB Units;NB Method;NI;NI Units;NI Method;OS;OS Units;OS Method;P;P Units;P Method;PB;PB Units;PB Method;PD;PD Units;PD Method;PT;PT Units;PT Method;RB;RB Units;RB Method;RE;RE Units;RE Method;RH;RH Units;RH Method;RU;RU Units;RU Method;S;S Units;S Method;SB;SB Units;SB Method;SC;SC Units;SC Method;SN;SN Units;SN Method;SR;SR Units;SR Method;TA;TA Units;TA Method;TH;TH Units;TH Method;TI;TI Units;TI Method;TL;TL Units;TL Method;U;U Units;U Method;V;V Units;V Method;W;W Units;W Method;Y;Y Units;Y Method;ZN;ZN Units;ZN Method;ZR;ZR Units;ZR Method;DELTA_O18;DELTA_O18 Units;DELTA_O18 Method;DELTA_C13;DELTA_C13 Units;DELTA_C13 Method;DELTA_MO98;DELTA_MO98 Units;DELTA_MO98 Method;DELTA_ZN66;DELTA_ZN66 Units;DELTA_ZN66 Method;DELTA_ZN68;DELTA_ZN68 Units;DELTA_ZN68 Method;OS188;OS188 Units;OS188 Method;FE3P_FET;FE3P_FET Units;FE3P_FET Method;TI;TI Units;TI Method;AS;AS Units;AS Method;AS;AS Units;AS Method;GER;GER Units;GER Method;H2O_M;H2O_M Units;H2O_M Method;H2O_P;H2O_P Units;H2O_P Method;H2O_M;H2O_M Units;H2O_M Method;H2O_P;H2O_P Units;H2O_P Method;INDIUM;INDIUM Units;INDIUM Method
GROSCAMP-W-243051;;GROSSMAN-CAMP;GROSSMAN, 1991;36,0667;-78,8931;0,001;;;CONTINENTAL_RIFT;;;;"AAS; COL; ES; ICP; INAA; TITR; Unknown";WHOLE ROCK;IGNEOUS:VOLCANIC:MAFIC;DIABASE;;46,3;wt%;COL;0,44;wt%;COL;17,2;wt%;COL;;;;2,43;wt%;Unknown;;;;7,4;wt%;TITR;;;;;;;0,15;wt%;AAS;12;wt%;AAS;11,4;wt%;Unknown;;;;1,77;wt%;Unknown;0,18;wt%;AAS;0,07;wt%;COL;;;;;;;;;;0,56;wt%;TITR;0,91;wt%;TITR;;;;;;;;;;330;ppm;Unknown;69;ppm;Unknown;94;ppm;Unknown;;;;65;ppm;Unknown;;;;;;;0,05;ppm;INAA;;;;;;;;;;;;;;;;;;;;;;;;;;;;;;;;;;;;;;;;;;;;;;;;;;;;;;;;;;;;;;;;;;;;;;;;;;;;;;;;;;;;;;;;;;;;;;;;;;;;;;;;;;;;;;;;;;;;;;;;;3,4;ppm;INAA;8,2;ppm;INAA;;;;4,8;ppm;INAA;1,33;ppm;INAA;0,52;ppm;INAA;;;;0,38;ppm;INAA;;;;;;;;;;;;;1,9;ppm;INAA;0,26;ppm;INAA;0,06;ppm;TITR;0,01;ppm;INAA;;;;;;;;;;;;;;;;;;;;;;;;;;;;8,6;ppm;INAA;4,3;ppm;ES;102;ppm;Unknown;;;;;;;;;;;;;69;ppm;Unknown;530;ppm;Unknown;;;;94;ppm;Unknown;;;;;;;0,87;ppm;INAA;;;;;;;;;;;;;;;;;;;;;;1,4;ppm;ICP;330;ppm;Unknown;;;;;;;;;;4,3;ppm;Unknown;13;ppm;Unknown;;;;;;;;;;;;;0,05;ppm;INAA;;;;34;ppm;INAA;;;;137;ppm;Unknown;0,2;ppm;INAA;;;;;;;;;;;;;;;;;;;19;ppm;Unknown;65;ppm;Unknown;45;ppm;Unknown;;;;;;;;;;;;;;;;;;;;;;;;;;;;;;;;;;0,56;wt%;TITR;0,91;wt%;TITR;0,56;wt%;TITR;0,91;wt%;TITR;;;
GROSCAMP-W-243055;;GROSSMAN-CAMP;GROSSMAN, 1991;36,0681;-78,8833;0,001;;;CONTINENTAL_RIFT;;;;"AAS; COL; ICP; INAA; TITR; Unknown";WHOLE ROCK;IGNEOUS:VOLCANIC:FELSIC;GRANOPHYRE;;48;wt%;COL;1,82;wt%;COL;13,2;wt%;COL;;;;6,46;wt%;Unknown;;;;8,6;wt%;TITR;;;;;;;0,23;wt%;AAS;7,81;wt%;AAS;11,1;wt%;Unknown;;;;2,48;wt%;Unknown;0,68;wt%;AAS;0,18;wt%;COL;;;;;;;;;;0,82;wt%;TITR;1;wt%;TITR;;;;;;;;;;120;ppm;Unknown;62;ppm;Unknown;106;ppm;Unknown;;;;78;ppm;Unknown;;;;;;;0,19;ppm;INAA;;;;;;;;;;;;;;;;;;;;;;;;;;;;;;;;;;;;;;;;;;;;;;;;;;;;;;;;;;;;;;;;;;;;;;;;;;;;;;;;;;;;;;;;;;;;;;;;;;;;;;;;;;;;;;;;;;;;;;;;;10;ppm;INAA;21,3;ppm;INAA;;;;12;ppm;INAA;4,1;ppm;INAA;1,31;ppm;INAA;;;;1,2;ppm;INAA;;;;;;;;;;;;;5,4;ppm;INAA;0,79;ppm;INAA;0,06;ppm;TITR;0,02;ppm;INAA;0;ppm;INAA;;;;;;;;;;;;;;;;;;;;;;;;;;;;;;;197;ppm;Unknown;;;;;;;;;;;;;62;ppm;Unknown;81;ppm;Unknown;;;;106;ppm;Unknown;;;;;;;2,8;ppm;INAA;;;;;;;;;;;;;;;;;;;;;;6,8;ppm;ICP;120;ppm;Unknown;;;;;;;;;;1,5;ppm;Unknown;5,2;ppm;Unknown;6;ppm;Unknown;;;;;;;;;;0,19;ppm;INAA;;;;65;ppm;INAA;;;;143;ppm;Unknown;0,46;ppm;INAA;0,85;ppm;INAA;;;;;;;;;;;;;;;;42;ppm;Unknown;78;ppm;Unknown;90;ppm;Unknown;;;;;;;;;;;;;;;;;;;;;;;;;;;;;;;;;;0,82;wt%;TITR;1;wt%;TITR;0,82;wt%;TITR;1;wt%;TITR;;;
GROSCAMP-W-243056;;GROSSMAN-CAMP;GROSSMAN, 1991;36,0681;-78,8833;0,001;;;CONTINENTAL_RIFT;;;;"AAS; COL; ES; ICP; INAA; TITR; Unknown";WHOLE ROCK;IGNEOUS:VOLCANIC:MAFIC;DIABASE;;52,6;wt%;COL;1,8;wt%;COL;12,1;wt%;COL;;;;5,44;wt%;Unknown;;;;6,4;wt%;TITR;;;;;;;0,24;wt%;AAS;2,91;wt%;AAS;8,91;wt%;Unknown;;;;3,85;wt%;Unknown;4,21;wt%;AAS;0,63;wt%;COL;;;;;;;;;;0,72;wt%;TITR;1;wt%;TITR;;;;;;;;;;10;ppm;Unknown;27,8;ppm;Unknown;49;ppm;Unknown;;;;99;ppm;Unknown;;;;;;;0,02;ppm;INAA;;;;;;;;;;;;;;;;;;;;;;;;;;;;;;;;;;;;;;;;;;;;;;;;;;;;;;;;;;;;;;;;;;;;;;;;;;;;;;;;;;;;;;;;;;;;;;;;;;;;;;;;;;;;;;;;;;;;;;;;;37;ppm;INAA;76;ppm;INAA;;;;41;ppm;INAA;12;ppm;INAA;3,4;ppm;INAA;;;;3,1;ppm;INAA;;;;;;;;;;;;;15,8;ppm;INAA;2,25;ppm;INAA;0,16;ppm;TITR;0,05;ppm;INAA;0,01;ppm;INAA;;;;;;;;;;;;;;;;;;;;;;;;;;;;3;ppm;ES;284;ppm;Unknown;;;;;;;;;;;;;27,8;ppm;Unknown;4,1;ppm;Unknown;;;;49;ppm;Unknown;;;;;;;9,5;ppm;INAA;;;;;;;;;;;;;;;;;;;;;;17;ppm;ICP;10;ppm;Unknown;;;;;;;;;;;;;;;;35;ppm;Unknown;;;;;;;;;;0,02;ppm;INAA;;;;39;ppm;INAA;;;;45;ppm;Unknown;1;ppm;INAA;2,8;ppm;INAA;;;;;;;0,84;ppm;INAA;;;;;;;160;ppm;Unknown;99;ppm;Unknown;340;ppm;Unknown;;;;;;;;;;;;;;;;;;;;;;;;;;;;;;;;;;0,72;wt%;TITR;1;wt%;TITR;0,72;wt%;TITR;1;wt%;TITR;;;
GROSCAMP-W-243063;;GROSSMAN-CAMP;GROSSMAN, 1991;40,23;-75,99;0,001;;;CONTINENTAL_RIFT;;;;"AAS; ICP; INAA; Unknown";WHOLE ROCK;IGNEOUS:VOLCANIC:MAFIC;DIABASE;;;;;;;;;;;;;;;;;12;wt%;Unknown;;;;;;;;;;;;;;;;10,77;wt%;Unknown;;;;2,32;wt%;Unknown;;;;;;;;;;;;;;;;;;;;;;;;;;;;;;;86;ppm;Unknown;48;ppm;Unknown;101;ppm;Unknown;;;;75;ppm;Unknown;1;ppm;INAA;0,046;ppm;AAS;;;;;;;;;;;;;;;;;;;;;;;;;;;;;;;;;;;;;;;;;;;;;;;;;;;;;;;;;;;;;;;;;;;;;;;;;;;;;;;;;;;;;;;;;;;;;;;;;;;;;;;;;;;;;;;;;;;;;;;;;;;;11,1;ppm;INAA;23,2;ppm;INAA;;;;13;ppm;INAA;3,6;ppm;INAA;1,1;ppm;INAA;;;;0,68;ppm;INAA;;;;;;;;;;;;;2,2;ppm;INAA;0,32;ppm;INAA;;;;;;;;;;;;;;;;;;;;;;;;;0,046;ppm;AAS;;;;1;ppm;INAA;11;ppm;INAA;;;;145;ppm;Unknown;;;;;;;;;;;;;48;ppm;Unknown;280;ppm;Unknown;0,71;ppm;INAA;101;ppm;Unknown;;;;;;;2,57;ppm;INAA;;;;;;;;;;;;;;;;;;;;;;6,4;ppm;ICP;86;ppm;Unknown;;;;;;;;;;;;;;;;7;ppm;Unknown;;;;;;;;;;;;;;;;37;ppm;INAA;;;;163;ppm;Unknown;0,58;ppm;INAA;2,1;ppm;INAA;;;;;;;0,43;ppm;INAA;;;;;;;16;ppm;Unknown;75;ppm;Unknown;87;ppm;Unknown;;;;;;;;;;;;;;;;;;;;;;;;;1;ppm;INAA;1;ppm;INAA;;;;;;;;;;;;;;;;;;
GROSCAMP-W-243066;;GROSSMAN-CAMP;GROSSMAN, 1991;40,23;-75,99;0,001;;;CONTINENTAL_RIFT;;;;"AAS; ICP; INAA; Unknown";WHOLE ROCK;IGNEOUS:VOLCANIC:MAFIC;DIABASE;;;;;;;;;;;;;;;;;11,63;wt%;Unknown;;;;;;;;;;;;;;;;11,05;wt%;Unknown;;;;2,29;wt%;Unknown;;;;;;;;;;;;;;;;;;;;;;;;;;;;;;;97;ppm;Unknown;50;ppm;Unknown;78;ppm;Unknown;;;;70;ppm;Unknown;;;;0,033;ppm;AAS;;;;;;;;;;;;;;;;;;;;;;;;;;;;;;;;;;;;;;;;;;;;;;;;;;;;;;;;;;;;;;;;;;;;;;;;;;;;;;;;;;;;;;;;;;;;;;;;;;;;;;;;;;;;;;;;;;;;;;;;;;;;9,1;ppm;INAA;20;ppm;INAA;;;;9,8;ppm;INAA;2,91;ppm;INAA;0,93;ppm;INAA;;;;0,52;ppm;INAA;;;;;;;;;;;;;1,9;ppm;INAA;0,27;ppm;INAA;;;;;;;;;;;;;;;;;;;;;;;;;0,033;ppm;AAS;;;;;;;5,1;ppm;INAA;;;;122;ppm;Unknown;;;;;;;;;;;;;50;ppm;Unknown;298;ppm;Unknown;0,41;ppm;INAA;78;ppm;Unknown;;;;;;;2,1;ppm;INAA;;;;;;;;;;;;;;;;;;;;;;5,5;ppm;ICP;97;ppm;Unknown;;;;;;;;;;;;;;;;21;ppm;Unknown;;;;;;;;;;;;;0,11;ppm;INAA;40;ppm;INAA;;;;193;ppm;Unknown;0,47;ppm;INAA;1,8;ppm;INAA;;;;;;;0,52;ppm;INAA;;;;;;;29;ppm;Unknown;70;ppm;Unknown;90;ppm;Unknown;;;;;;;;;;;;;;;;;;;;;;;;;;;;;;;;;;;;;;;;;;;;;;;;
GROSCAMP-W-243067;;GROSSMAN-CAMP;GROSSMAN, 1991;40,23;-75,99;0,001;;;CONTINENTAL_RIFT;;;;"AAS; ICP; INAA; Unknown";WHOLE ROCK;IGNEOUS:VOLCANIC:MAFIC;DIABASE;;;;;;;;;;;;;;;;;11,1;wt%;Unknown;;;;;;;;;;;;;;;;10,63;wt%;Unknown;;;;2,06;wt%;Unknown;;;;;;;;;;;;;;;;;;;;;;;;;;;;;;;100;ppm;Unknown;50;ppm;Unknown;63;ppm;Unknown;;;;58;ppm;Unknown;;;;0,029;ppm;AAS;;;;;;;;;;;;;;;;;;;;;;;;;;;;;;;;;;;;;;;;;;;;;;;;;;;;;;;;;;;;;;;;;;;;;;;;;;;;;;;;;;;;;;;;;;;;;;;;;;;;;;;;;;;;;;;;;;;;;;;;;;;;6,9;ppm;INAA;15;ppm;INAA;;;;7,6;ppm;INAA;2,35;ppm;INAA;0,83;ppm;INAA;;;;0,49;ppm;INAA;;;;;;;;;;;;;1,5;ppm;INAA;0,22;ppm;INAA;;;;;;;;;;;;;;;;;;;;;;;;;0,029;ppm;AAS;;;;;;;4,2;ppm;INAA;;;;101;ppm;Unknown;;;;;;;;;;;;;50;ppm;Unknown;310;ppm;Unknown;;;;63;ppm;Unknown;;;;;;;1,6;ppm;INAA;;;;;;;;;;;;;;;;;;;;;;4;ppm;ICP;100;ppm;Unknown;;;;;;;;;;;;;;;;6;ppm;Unknown;;;;;;;;;;;;;0,11;ppm;INAA;40;ppm;INAA;;;;174;ppm;Unknown;0,33;ppm;INAA;1,5;ppm;INAA;;;;;;;0,44;ppm;INAA;;;;;;;21;ppm;Unknown;58;ppm;Unknown;64;ppm;Unknown;;;;;;;;;;;;;;;;;;;;;;;;;;;;;;;;;;;;;;;;;;;;;;;;
GROSCAMP-W-243068;;GROSSMAN-CAMP;GROSSMAN, 1991;40,23;-75,99;0,001;;;CONTINENTAL_RIFT;;;;"AAS; ICP; INAA; Unknown";WHOLE ROCK;IGNEOUS:VOLCANIC:MAFIC;DIABASE;;;;;;;;;;;;;;;;;11,51;wt%;Unknown;;;;;;;;;;;;;;;;10,77;wt%;Unknown;;;;2,17;wt%;Unknown;;;;;;;;;;;;;;;;;;;;;;;;;;;;;;;110;ppm;Unknown;51;ppm;Unknown;83;ppm;Unknown;;;;78;ppm;Unknown;;;;0,033;ppm;AAS;;;;;;;;;;;;;;;;;;;;;;;;;;;;;;;;;;;;;;;;;;;;;;;;;;;;;;;;;;;;;;;;;;;;;;;;;;;;;;;;;;;;;;;;;;;;;;;;;;;;;;;;;;;;;;;;;;;;;;;;;;;;8,9;ppm;INAA;19;ppm;INAA;;;;9,6;ppm;INAA;2,88;ppm;INAA;0,94;ppm;INAA;;;;0,65;ppm;INAA;;;;;;;;;;;;;1,9;ppm;INAA;0,26;ppm;INAA;;;;;;;;;;;;;;;;;;;;;;;;;0,033;ppm;AAS;;;;;;;7,1;ppm;INAA;;;;178;ppm;Unknown;;;;;;;;;;;;;51;ppm;Unknown;340;ppm;Unknown;0,51;ppm;INAA;83;ppm;Unknown;;;;;;;2;ppm;INAA;;;;;;;;;;;;;;;;;;;;;;5,4;ppm;ICP;110;ppm;Unknown;;;;;;;;;;;;;;;;19;ppm;Unknown;;;;;;;;;;;;;0,13;ppm;INAA;41;ppm;INAA;;;;188;ppm;Unknown;0,43;ppm;INAA;1,9;ppm;INAA;;;;;;;0,39;ppm;INAA;;;;;;;23;ppm;Unknown;78;ppm;Unknown;78;ppm;Unknown;;;;;;;;;;;;;;;;;;;;;;;;;;;;;;;;;;;;;;;;;;;;;;;;
GROSCAMP-W-243069;;GROSSMAN-CAMP;GROSSMAN, 1991;40,23;-75,99;0,001;;;CONTINENTAL_RIFT;;;;"AAS; ICP; INAA; Unknown";WHOLE ROCK;IGNEOUS:VOLCANIC:MAFIC;DIABASE;;;;;;;;;;;;;;;;;13,6;wt%;Unknown;;;;;;;;;;;;;;;;9,93;wt%;Unknown;;;;2,79;wt%;Unknown;;;;;;;;;;;;;;;;;;;;;;;;;;;;;;;65;ppm;Unknown;51;ppm;Unknown;115;ppm;Unknown;;;;95;ppm;Unknown;1,2;ppm;INAA;0,1;ppm;AAS;;;;;;;;;;;;;;;;;;;;;;;;;;;;;;;;;;;;;;;;;;;;;;;;;;;;;;;;;;;;;;;;;;;;;;;;;;;;;;;;;;;;;;;;;;;;;;;;;;;;;;;;;;;;;;;;;;;;;;;;;;;;12,9;ppm;INAA;27,4;ppm;INAA;;;;15;ppm;INAA;4,1;ppm;INAA;1,3;ppm;INAA;;;;0,77;ppm;INAA;;;;;;;;;;;;;2,58;ppm;INAA;0,36;ppm;INAA;;;;;;;;;;;;;;;;;;;;;;;;;0,1;ppm;AAS;;;;1,2;ppm;INAA;6,5;ppm;INAA;;;;176;ppm;Unknown;;;;;;;;;;;;;51;ppm;Unknown;51;ppm;Unknown;0,72;ppm;INAA;115;ppm;Unknown;;;;;;;3;ppm;INAA;;;;;;;;;;;;;;;;;;;;;;8,4;ppm;ICP;65;ppm;Unknown;;;;;;;;;;;;;;;;24;ppm;Unknown;;;;;;;;;;;;;0,16;ppm;INAA;42;ppm;INAA;;;;215;ppm;Unknown;0,66;ppm;INAA;2,5;ppm;INAA;;;;;;;0,56;ppm;INAA;;;;;;;30;ppm;Unknown;95;ppm;Unknown;108;ppm;Unknown;;;;;;;;;;;;;;;;;;;;;;;;;1,2;ppm;INAA;1,2;ppm;INAA;;;;;;;;;;;;;;;;;;
GROSCAMP-W-243070;;GROSSMAN-CAMP;GROSSMAN, 1991;40,23;-75,99;0,001;;;CONTINENTAL_RIFT;;;;"AAS; ICP; INAA; Unknown";WHOLE ROCK;IGNEOUS:VOLCANIC:MAFIC;DIABASE;;;;;;;;;;;;;;;;;12,51;wt%;Unknown;;;;;;;;;;;;;;;;10,35;wt%;Unknown;;;;2,56;wt%;Unknown;;;;;;;;;;;;;;;;;;;;;;;;;;;;;;;71;ppm;Unknown;49;ppm;Unknown;120;ppm;Unknown;;;;75;ppm;Unknown;1,5;ppm;INAA;0,073;ppm;AAS;;;;;;;;;;;;;;;;;;;;;;;;;;;;;;;;;;;;;;;;;;;;;;;;;;;;;;;;;;;;;;;;;;;;;;;;;;;;;;;;;;;;;;;;;;;;;;;;;;;;;;;;;;;;;;;;;;;;;;;;;;;;12;ppm;INAA;26;ppm;INAA;;;;14;ppm;INAA;3,9;ppm;INAA;1,23;ppm;INAA;;;;0,64;ppm;INAA;;;;;;;;;;;;;2,5;ppm;INAA;0,34;ppm;INAA;;;;;;;;;;;;;;;;;;;;;;;;;0,073;ppm;AAS;;;;1,5;ppm;INAA;6,8;ppm;INAA;;;;189;ppm;Unknown;;;;;;;;;;;;;49;ppm;Unknown;59;ppm;Unknown;0,87;ppm;INAA;120;ppm;Unknown;;;;;;;2,8;ppm;INAA;;;;;;;;;;;;;;;;;;;;;;8,1;ppm;ICP;71;ppm;Unknown;;;;;;;;;;;;;;;;16;ppm;Unknown;;;;;;;;;;;;;0,18;ppm;INAA;39;ppm;INAA;;;;196;ppm;Unknown;0,61;ppm;INAA;2,7;ppm;INAA;;;;;;;0,57;ppm;INAA;;;;;;;26;ppm;Unknown;75;ppm;Unknown;105;ppm;Unknown;;;;;;;;;;;;;;;;;;;;;;;;;1,5;ppm;INAA;1,5;ppm;INAA;;;;;;;;;;;;;;;;;;
GROSCAMP-W-243071;;GROSSMAN-CAMP;GROSSMAN, 1991;40,23;-75,99;0,001;;;CONTINENTAL_RIFT;;;;"AAS; ICP; INAA; Unknown";WHOLE ROCK;IGNEOUS:VOLCANIC:MAFIC;DIABASE;;;;;;;;;;;;;;;;;11,9;wt%;Unknown;;;;;;;;;;;;;;;;10,07;wt%;Unknown;;;;2,71;wt%;Unknown;;;;;;;;;;;;;;;;;;;;;;;;;;;;;;;71;ppm;Unknown;48;ppm;Unknown;90;ppm;Unknown;;;;74;ppm;Unknown;;;;0,046;ppm;AAS;;;;;;;;;;;;;;;;;;;;;;;;;;;;;;;;;;;;;;;;;;;;;;;;;;;;;;;;;;;;;;;;;;;;;;;;;;;;;;;;;;;;;;;;;;;;;;;;;;;;;;;;;;;;;;;;;;;;;;;;;;;;10,2;ppm;INAA;20,7;ppm;INAA;;;;11;ppm;INAA;3,3;ppm;INAA;1,01;ppm;INAA;;;;0,58;ppm;INAA;;;;;;;;;;;;;2,1;ppm;INAA;0,31;ppm;INAA;;;;;;;;;;;;;;;;;;;;;;;;;0,046;ppm;AAS;;;;;;;4,5;ppm;INAA;;;;170;ppm;Unknown;;;;;;;;;;;;;48;ppm;Unknown;51;ppm;Unknown;0,44;ppm;INAA;90;ppm;Unknown;;;;;;;2,28;ppm;INAA;;;;;;;;;;;;;;;;;;;;;;6,3;ppm;ICP;71;ppm;Unknown;;;;;;;;;;;;;;;;24;ppm;Unknown;;;;;;;;;;;;;0,14;ppm;INAA;39;ppm;INAA;;;;192;ppm;Unknown;0,44;ppm;INAA;2;ppm;INAA;;;;;;;0,5;ppm;INAA;;;;;;;22;ppm;Unknown;74;ppm;Unknown;87;ppm;Unknown;;;;;;;;;;;;;;;;;;;;;;;;;;;;;;;;;;;;;;;;;;;;;;;;
GROSCAMP-W-243072;;GROSSMAN-CAMP;GROSSMAN, 1991;40,23;-75,99;0,001;;;CONTINENTAL_RIFT;;;;"AAS; ICP; INAA; Unknown";WHOLE ROCK;IGNEOUS:VOLCANIC:MAFIC;DIABASE;;;;;;;;;;;;;;;;;11,18;wt%;Unknown;;;;;;;;;;;;;;;;7,97;wt%;Unknown;;;;4,03;wt%;Unknown;;;;;;;;;;;;;;;;;;;;;;;;;;;;;;;78;ppm;Unknown;47;ppm;Unknown;76;ppm;Unknown;;;;79;ppm;Unknown;1,4;ppm;INAA;0,11;ppm;AAS;;;;;;;;;;;;;;;;;;;;;;;;;;;;;;;;;;;;;;;;;;;;;;;;;;;;;;;;;;;;;;;;;;;;;;;;;;;;;;;;;;;;;;;;;;;;;;;;;;;;;;;;;;;;;;;;;;;;;;;;;;;;8,9;ppm;INAA;18,6;ppm;INAA;;;;9,4;ppm;INAA;2,93;ppm;INAA;0,82;ppm;INAA;;;;0,53;ppm;INAA;;;;;;;;;;;;;1,8;ppm;INAA;0,27;ppm;INAA;;;;;;;;;;;;;;;;;;;;;;;;;0,11;ppm;AAS;;;;1,4;ppm;INAA;4,9;ppm;INAA;;;;350;ppm;Unknown;;;;;;;;;;;;;47;ppm;Unknown;60;ppm;Unknown;0,7;ppm;INAA;76;ppm;Unknown;;;;;;;2,01;ppm;INAA;;;;;;;;;;;;;;;;;;;;;;5,3;ppm;ICP;78;ppm;Unknown;;;;;;;;;;;;;;;;42;ppm;Unknown;;;;;;;;;;;;;0,32;ppm;INAA;38;ppm;INAA;;;;254;ppm;Unknown;0,49;ppm;INAA;1,8;ppm;INAA;;;;;;;0,44;ppm;INAA;;;;;;;24;ppm;Unknown;79;ppm;Unknown;84;ppm;Unknown;;;;;;;;;;;;;;;;;;;;;;;;;1,4;ppm;INAA;1,4;ppm;INAA;;;;;;;;;;;;;;;;;;
GROSCAMP-W-243073;;GROSSMAN-CAMP;GROSSMAN, 1991;40,23;-75,99;0,001;;;CONTINENTAL_RIFT;;;;"AAS; ICP; INAA; Unknown";WHOLE ROCK;IGNEOUS:VOLCANIC:MAFIC;DIABASE;;;;;;;;;;;;;;;;;10,83;wt%;Unknown;;;;;;;;;;;;;;;;9,79;wt%;Unknown;;;;2,48;wt%;Unknown;;;;;;;;;;;;;;;;;;;;;;;;;;;;;;;110;ppm;Unknown;48;ppm;Unknown;66;ppm;Unknown;;;;83;ppm;Unknown;;;;0,073;ppm;AAS;;;;;;;;;;;;;;;;;;;;;;;;;;;;;;;;;;;;;;;;;;;;;;;;;;;;;;;;;;;;;;;;;;;;;;;;;;;;;;;;;;;;;;;;;;;;;;;;;;;;;;;;;;;;;;;;;;;;;;;;;;;;7,7;ppm;INAA;17;ppm;INAA;;;;9,4;ppm;INAA;2,5;ppm;INAA;0,8;ppm;INAA;;;;0,49;ppm;INAA;;;;;;;;;;;;;1,7;ppm;INAA;0,25;ppm;INAA;;;;;;;;;;;;;;;;;;;;;;;;;0,073;ppm;AAS;;;;;;;;;;;;;320;ppm;Unknown;;;;;;;;;;;;;48;ppm;Unknown;360;ppm;Unknown;0,59;ppm;INAA;66;ppm;Unknown;;;;;;;1,7;ppm;INAA;;;;;;;;;;;;;;;;;;;;;;5;ppm;ICP;110;ppm;Unknown;;;;;;;;;;;;;;;;38;ppm;Unknown;;;;;;;;;;;;;0,28;ppm;INAA;39;ppm;INAA;;;;200;ppm;Unknown;0,35;ppm;INAA;1,5;ppm;INAA;;;;;;;;;;;;;;;;20;ppm;Unknown;83;ppm;Unknown;73;ppm;Unknown;;;;;;;;;;;;;;;;;;;;;;;;;;;;;;;;;;;;;;;;;;;;;;;;
GROSCAMP-W-243074;;GROSSMAN-CAMP;GROSSMAN, 1991;40,23;-75,99;0,001;;;CONTINENTAL_RIFT;;;;"AAS; ICP; INAA; Unknown";WHOLE ROCK;IGNEOUS:VOLCANIC:MAFIC;DIABASE;;;;;;;;;;;;;;;;;10,74;wt%;Unknown;;;;;;;;;;;;;;;;11,33;wt%;Unknown;;;;2,22;wt%;Unknown;;;;;;;;;;;;;;;;;;;;;;;;;;;;;;;92;ppm;Unknown;49;ppm;Unknown;74;ppm;Unknown;;;;65;ppm;Unknown;;;;0,031;ppm;AAS;;;;;;;;;;;;;;;;;;;;;;;;;;;;;;;;;;;;;;;;;;;;;;;;;;;;;;;;;;;;;;;;;;;;;;;;;;;;;;;;;;;;;;;;;;;;;;;;;;;;;;;;;;;;;;;;;;;;;;;;;;;;7,2;ppm;INAA;15;ppm;INAA;;;;8,6;ppm;INAA;2,4;ppm;INAA;0,81;ppm;INAA;;;;0,5;ppm;INAA;;;;;;;;;;;;;1,6;ppm;INAA;0,22;ppm;INAA;;;;;;;;;;;;;;;;;;;;;;;;;0,031;ppm;AAS;;;;;;;4,5;ppm;INAA;;;;107;ppm;Unknown;;;;;;;;;;;;;49;ppm;Unknown;94;ppm;Unknown;0,5;ppm;INAA;74;ppm;Unknown;;;;;;;1,7;ppm;INAA;;;;;;;;;;;;;;;;;;;;;;4,4;ppm;ICP;92;ppm;Unknown;;;;;;;;;;;;;;;;15;ppm;Unknown;;;;;;;;;;;;;;;;40;ppm;INAA;;;;189;ppm;Unknown;0,37;ppm;INAA;1,6;ppm;INAA;;;;;;;0,42;ppm;INAA;;;;;;;21;ppm;Unknown;65;ppm;Unknown;70;ppm;Unknown;;;;;;;;;;;;;;;;;;;;;;;;;;;;;;;;;;;;;;;;;;;;;;;;