SAMPLE ID;IGSN;EXPEDITION ID;REFERENCES;LATITUDE;LONGITUDE;LOC PREC;MIN ELEVATION;MAX ELEVATION;TECTONIC SETTING;MIN AGE;AGE;MAX AGE;METHOD;ANALYZED MATERIAL;ROCK TYPE;ROCK NAME;MINERAL;SIO2;SIO2 Units;SIO2 Method;TIO2;TIO2 Units;TIO2 Method;AL2O3;AL2O3 Units;AL2O3 Method;CR2O3;CR2O3 Units;CR2O3 Method;FE2O3;FE2O3 Units;FE2O3 Method;FE2O3T;FE2O3T Units;FE2O3T Method;FEO;FEO Units;FEO Method;FEOT;FEOT Units;FEOT Method;NIO;NIO Units;NIO Method;MNO;MNO Units;MNO Method;MGO;MGO Units;MGO Method;CAO;CAO Units;CAO Method;SRO;SRO Units;SRO Method;NA2O;NA2O Units;NA2O Method;K2O;K2O Units;K2O Method;P2O5;P2O5 Units;P2O5 Method;BAO;BAO Units;BAO Method;LOI;LOI Units;LOI Method;H2O;H2O Units;H2O Method;H2O_M;H2O_M Units;H2O_M Method;H2O_P;H2O_P Units;H2O_P Method;SO3;SO3 Units;SO3 Method;COO;COO Units;COO Method;MN;MN Units;MN Method;NI;NI Units;NI Method;CO;CO Units;CO Method;CU;CU Units;CU Method;CD;CD Units;CD Method;ZN;ZN Units;ZN Method;AS;AS Units;AS Method;AG;AG Units;AG Method;S;S Units;S Method;ZRO2;ZRO2 Units;ZRO2 Method;AL;AL Units;AL Method;CA;CA Units;CA Method;SR87_SR86;SR87_SR86 Units;SR87_SR86 Method;SR87_SR86_INI;SR87_SR86_INI Units;SR87_SR86_INI Method;RB87_SR86;RB87_SR86 Units;RB87_SR86 Method;ND143_ND144;ND143_ND144 Units;ND143_ND144 Method;ND143_ND144_INI;ND143_ND144_INI Units;ND143_ND144_INI Method;SM147_ND144;SM147_ND144 Units;SM147_ND144 Method;E_ND;E_ND Units;E_ND Method;E_ND_INI;E_ND_INI Units;E_ND_INI Method;PB204_PB206;PB204_PB206 Units;PB204_PB206 Method;PB206_PB204;PB206_PB204 Units;PB206_PB204 Method;PB206_PB204_INI;PB206_PB204_INI Units;PB206_PB204_INI Method;PB207_PB204;PB207_PB204 Units;PB207_PB204 Method;PB207_PB204_INI;PB207_PB204_INI Units;PB207_PB204_INI Method;PB207_PB206;PB207_PB206 Units;PB207_PB206 Method;PB208_PB204;PB208_PB204 Units;PB208_PB204 Method;PB208_PB204_INI;PB208_PB204_INI Units;PB208_PB204_INI Method;PB208_PB206;PB208_PB206 Units;PB208_PB206 Method;HF176_HF177;HF176_HF177 Units;HF176_HF177 Method;RE187_OS188;RE187_OS188 Units;RE187_OS188 Method;OS187_OS188;OS187_OS188 Units;OS187_OS188 Method;OS187_OS188_INI;OS187_OS188_INI Units;OS187_OS188_INI Method;G_OS;G_OS Units;G_OS Method;G_OS_INI;G_OS_INI Units;G_OS_INI Method;ND143_ND144_INI;ND143_ND144_INI Units;ND143_ND144_INI Method;PB206_PB204_INI;PB206_PB204_INI Units;PB206_PB204_INI Method;PB207_PB204_INI;PB207_PB204_INI Units;PB207_PB204_INI Method;PB208_PB204_INI;PB208_PB204_INI Units;PB208_PB204_INI Method;SR87_SR86_INI;SR87_SR86_INI Units;SR87_SR86_INI Method;HE;HE Units;HE Method;HE3;HE3 Units;HE3 Method;HE3_HE4_R_RA;HE3_HE4_R_RA Units;HE3_HE4_R_RA Method;AR36;AR36 Units;AR36 Method;AR40;AR40 Units;AR40 Method;AR40_AR36;AR40_AR36 Units;AR40_AR36 Method;NE20;NE20 Units;NE20 Method;NE20_NE22;NE20_NE22 Units;NE20_NE22 Method;NE21_NE22;NE21_NE22 Units;NE21_NE22 Method;LA;LA Units;LA Method;CE;CE Units;CE Method;PR;PR Units;PR Method;ND;ND Units;ND Method;SM;SM Units;SM Method;EU;EU Units;EU Method;GD;GD Units;GD Method;TB;TB Units;TB Method;DY;DY Units;DY Method;HO;HO Units;HO Method;ER;ER Units;ER Method;TM;TM Units;TM Method;YB;YB Units;YB Method;LU;LU Units;LU Method;CO2;CO2 Units;CO2 Method;F;F Units;F Method;CL;CL Units;CL Method;U238_PB204;U238_PB204 Units;U238_PB204 Method;TH230_TH232;TH230_TH232 Units;TH230_TH232 Method;RA226_ACTIVITY;RA226_ACTIVITY Units;RA226_ACTIVITY Method;PB210_RA226;PB210_RA226 Units;PB210_RA226 Method;PB210_ACTIVITY;PB210_ACTIVITY Units;PB210_ACTIVITY Method;AG;AG Units;AG Method;AL;AL Units;AL Method;AS;AS Units;AS Method;AU;AU Units;AU Method;B;B Units;B Method;BA;BA Units;BA Method;BE;BE Units;BE Method;BI;BI Units;BI Method;CA;CA Units;CA Method;CD;CD Units;CD Method;CO;CO Units;CO Method;CR;CR Units;CR Method;CS;CS Units;CS Method;CU;CU Units;CU Method;GA;GA Units;GA Method;GER;GER Units;GER Method;HF;HF Units;HF Method;INDIUM;INDIUM Units;INDIUM Method;IR;IR Units;IR Method;K;K Units;K Method;LI;LI Units;LI Method;MN;MN Units;MN Method;MO;MO Units;MO Method;NA;NA Units;NA Method;NB;NB Units;NB Method;NI;NI Units;NI Method;OS;OS Units;OS Method;P;P Units;P Method;PB;PB Units;PB Method;PD;PD Units;PD Method;PT;PT Units;PT Method;RB;RB Units;RB Method;RE;RE Units;RE Method;RH;RH Units;RH Method;RU;RU Units;RU Method;S;S Units;S Method;SB;SB Units;SB Method;SC;SC Units;SC Method;SN;SN Units;SN Method;SR;SR Units;SR Method;TA;TA Units;TA Method;TH;TH Units;TH Method;TI;TI Units;TI Method;TL;TL Units;TL Method;U;U Units;U Method;V;V Units;V Method;W;W Units;W Method;Y;Y Units;Y Method;ZN;ZN Units;ZN Method;ZR;ZR Units;ZR Method;DELTA_O18;DELTA_O18 Units;DELTA_O18 Method;DELTA_C13;DELTA_C13 Units;DELTA_C13 Method;DELTA_MO98;DELTA_MO98 Units;DELTA_MO98 Method;DELTA_ZN66;DELTA_ZN66 Units;DELTA_ZN66 Method;DELTA_ZN68;DELTA_ZN68 Units;DELTA_ZN68 Method;OS188;OS188 Units;OS188 Method;FE3P_FET;FE3P_FET Units;FE3P_FET Method;TI;TI Units;TI Method;AS;AS Units;AS Method;AS;AS Units;AS Method;GER;GER Units;GER Method;H2O_M;H2O_M Units;H2O_M Method;H2O_P;H2O_P Units;H2O_P Method;H2O_M;H2O_M Units;H2O_M Method;H2O_P;H2O_P Units;H2O_P Method;INDIUM;INDIUM Units;INDIUM Method
GROSCAMP-W-235426;;GROSSMAN-CAMP;GROSSMAN, 1991;40,85;-73,95;0,001;;;CONTINENTAL_RIFT;;;;"AAS; COL; ICP; INAA; TITR; Unknown";WHOLE ROCK;IGNEOUS:VOLCANIC:MAFIC;DIABASE;;52;wt%;COL;1,2;wt%;COL;14,1;wt%;COL;;;;1,3;wt%;Unknown;;;;8,7;wt%;TITR;;;;;;;0,17;wt%;AAS;7,5;wt%;AAS;10,2;wt%;Unknown;;;;2;wt%;Unknown;0,89;wt%;AAS;0,18;wt%;COL;;;;;;;;;;0,09;wt%;TITR;1,1;wt%;TITR;;;;;;;;;;93;ppm;Unknown;;;;100;ppm;Unknown;;;;80;ppm;Unknown;;;;0,061;ppm;AAS;0,03;ppm;INAA;;;;;;;;;;;;;;;;;;;;;;;;;;;;;;;;;;;;;;;;;;;;;;;;;;;;;;;;;;;;;;;;;;;;;;;;;;;;;;;;;;;;;;;;;;;;;;;;;;;;;;;;;;;;;;;;;;;;;;;;;;;;;;;;;;;;;;;;;;;;;;;;;;;;;;;;;;;;;;;;;;;0,04;ppm;TITR;0,03;ppm;INAA;0,02;ppm;INAA;;;;;;;;;;;;;;;;0,061;ppm;AAS;;;;;;;;;;;;;204;ppm;Unknown;;;;;;;;;;;;;;;;;;;;;;100;ppm;Unknown;;;;;;;;;;;;;;;;;;;;;;;;;;;;;;;6,9;ppm;ICP;93;ppm;Unknown;;;;;;;;;;10;ppm;Unknown;12;ppm;Unknown;34;ppm;Unknown;;;;;;;;;;0,03;ppm;INAA;;;;;;;;;;196;ppm;Unknown;;;;;;;;;;;;;;;;;;;;;;26;ppm;Unknown;80;ppm;Unknown;108;ppm;Unknown;;;;;;;;;;;;;;;;;;;;;;;;;;;;;;;;;;0,09;wt%;TITR;1,1;wt%;TITR;0,09;wt%;TITR;1,1;wt%;TITR;;;
GROSCAMP-W-235427;;GROSSMAN-CAMP;GROSSMAN, 1991;40,85;-73,95;0,001;;;CONTINENTAL_RIFT;;;;"AAS; COL; ICP; INAA; TITR; Unknown";WHOLE ROCK;IGNEOUS:VOLCANIC:MAFIC;DIABASE;;50,2;wt%;COL;0,86;wt%;COL;11,8;wt%;COL;;;;1,2;wt%;Unknown;;;;9,6;wt%;TITR;;;;;;;0,18;wt%;AAS;11,9;wt%;AAS;9,5;wt%;Unknown;;;;1,5;wt%;Unknown;0,7;wt%;AAS;0,12;wt%;COL;;;;;;;;;;0,2;wt%;TITR;0,7;wt%;TITR;;;;;;;;;;230;ppm;Unknown;;;;90;ppm;Unknown;;;;84;ppm;Unknown;;;;0,082;ppm;AAS;0,03;ppm;INAA;;;;;;;;;;;;;;;;;;;;;;;;;;;;;;;;;;;;;;;;;;;;;;;;;;;;;;;;;;;;;;;;;;;;;;;;;;;;;;;;;;;;;;;;;;;;;;;;;;;;;;;;;;;;;;;;;;;;;;;;;;;;;;;;;;;;;;;;;;;;;;;;;;;;;;;;;;;;;;;;;;;0,03;ppm;TITR;0,02;ppm;INAA;0,12;ppm;INAA;;;;;;;;;;;;;;;;0,082;ppm;AAS;;;;;;;;;;;;;130;ppm;Unknown;;;;;;;;;;;;;;;;;;;;;;90;ppm;Unknown;;;;;;;;;;;;;;;;;;;;;;;;;;;;;;;5;ppm;ICP;230;ppm;Unknown;;;;;;;;;;9,5;ppm;Unknown;19;ppm;Unknown;29;ppm;Unknown;;;;;;;;;;0,03;ppm;INAA;;;;;;;;;;164;ppm;Unknown;;;;;;;;;;;;;;;;;;;;;;17;ppm;Unknown;84;ppm;Unknown;75;ppm;Unknown;;;;;;;;;;;;;;;;;;;;;;;;;;;;;;;;;;0,2;wt%;TITR;0,7;wt%;TITR;0,2;wt%;TITR;0,7;wt%;TITR;;;
GROSCAMP-W-235428;;GROSSMAN-CAMP;GROSSMAN, 1991;40,85;-73,95;0,001;;;CONTINENTAL_RIFT;;;;"AAS; COL; ICP; INAA; TITR; Unknown";WHOLE ROCK;IGNEOUS:VOLCANIC:MAFIC;DIABASE;;52,7;wt%;COL;0,85;wt%;COL;12,6;wt%;COL;;;;1,3;wt%;Unknown;;;;7,9;wt%;TITR;;;;;;;0,17;wt%;AAS;9,3;wt%;AAS;10,2;wt%;Unknown;;;;1,8;wt%;Unknown;0,52;wt%;AAS;0,13;wt%;COL;;;;;;;;;;0,19;wt%;TITR;0,9;wt%;TITR;;;;;;;;;;109;ppm;Unknown;;;;86;ppm;Unknown;;;;70;ppm;Unknown;;;;0,057;ppm;AAS;0,02;ppm;INAA;;;;;;;;;;;;;;;;;;;;;;;;;;;;;;;;;;;;;;;;;;;;;;;;;;;;;;;;;;;;;;;;;;;;;;;;;;;;;;;;;;;;;;;;;;;;;;;;;;;;;;;;;;;;;;;;;;;;;;;;;;;;;;;;;;;;;;;;;;;;;;;;;;;;;;;;;;;;;;;;;;;0,01;ppm;TITR;0,02;ppm;INAA;0,03;ppm;INAA;;;;;;;;;;;;;;;;0,057;ppm;AAS;;;;;;;;;;;;;145;ppm;Unknown;;;;;;;;;;;;;;;;;;;;;;86;ppm;Unknown;;;;;;;;;;;;;;;;;;;;;;;;;;;;;;;5,7;ppm;ICP;109;ppm;Unknown;;;;;;;;;;4,6;ppm;Unknown;15;ppm;Unknown;28;ppm;Unknown;;;;;;;;;;0,02;ppm;INAA;;;;;;;;;;165;ppm;Unknown;;;;;;;;;;;;;;;;;;;;;;18;ppm;Unknown;70;ppm;Unknown;78;ppm;Unknown;;;;;;;;;;;;;;;;;;;;;;;;;;;;;;;;;;0,19;wt%;TITR;0,9;wt%;TITR;0,19;wt%;TITR;0,9;wt%;TITR;;;
GROSCAMP-W-235429;;GROSSMAN-CAMP;GROSSMAN, 1991;40,85;-73,95;0,001;;;CONTINENTAL_RIFT;;;;"AAS; COL; ICP; INAA; TITR; Unknown";WHOLE ROCK;IGNEOUS:VOLCANIC:MAFIC;DIABASE;;49,6;wt%;COL;0,84;wt%;COL;10,7;wt%;COL;;;;1,4;wt%;Unknown;;;;9,5;wt%;TITR;;;;;;;0,18;wt%;AAS;13,7;wt%;AAS;9,5;wt%;Unknown;;;;1,7;wt%;Unknown;0,6;wt%;AAS;0,1;wt%;COL;;;;;;;;;;0,09;wt%;TITR;0,91;wt%;TITR;;;;;;;;;;277;ppm;Unknown;;;;73;ppm;Unknown;;;;66;ppm;Unknown;;;;0,054;ppm;AAS;0,04;ppm;INAA;;;;;;;;;;;;;;;;;;;;;;;;;;;;;;;;;;;;;;;;;;;;;;;;;;;;;;;;;;;;;;;;;;;;;;;;;;;;;;;;;;;;;;;;;;;;;;;;;;;;;;;;;;;;;;;;;;;;;;;;;;;;;;;;;;;;;;;;;;;;;;;;;;;;;;;;;;;;;;;;;;;;;;0,02;ppm;INAA;0,01;ppm;INAA;;;;;;;;;;;;;;;;0,054;ppm;AAS;;;;;;;;;;;;;132;ppm;Unknown;;;;;;;;;;;;;;;;;;;;;;73;ppm;Unknown;;;;;;;;;;;;;;;;;;;;;;;;;;;;;;;5,4;ppm;ICP;277;ppm;Unknown;;;;;;;;;;8,6;ppm;Unknown;19;ppm;Unknown;12;ppm;Unknown;;;;;;;;;;0,04;ppm;INAA;;;;;;;;;;133;ppm;Unknown;;;;;;;;;;;;;;;;;;;;;;15;ppm;Unknown;66;ppm;Unknown;74;ppm;Unknown;;;;;;;;;;;;;;;;;;;;;;;;;;;;;;;;;;0,09;wt%;TITR;0,91;wt%;TITR;0,09;wt%;TITR;0,91;wt%;TITR;;;
GROSCAMP-W-235430;;GROSSMAN-CAMP;GROSSMAN, 1991;40,85;-73,95;0,001;;;CONTINENTAL_RIFT;;;;"AAS; COL; ICP; INAA; TITR; Unknown";WHOLE ROCK;IGNEOUS:VOLCANIC:MAFIC;DIABASE;;52,6;wt%;COL;0,98;wt%;COL;12,8;wt%;COL;;;;1,6;wt%;Unknown;;;;8,2;wt%;TITR;;;;;;;0,17;wt%;AAS;8,9;wt%;AAS;10,3;wt%;Unknown;;;;1,9;wt%;Unknown;0,68;wt%;AAS;0,13;wt%;COL;;;;;;;;;;0,31;wt%;TITR;0,9;wt%;TITR;;;;;;;;;;105;ppm;Unknown;;;;92;ppm;Unknown;;;;68;ppm;Unknown;;;;0,17;ppm;AAS;0,03;ppm;INAA;;;;;;;;;;;;;;;;;;;;;;;;;;;;;;;;;;;;;;;;;;;;;;;;;;;;;;;;;;;;;;;;;;;;;;;;;;;;;;;;;;;;;;;;;;;;;;;;;;;;;;;;;;;;;;;;;;;;;;;;;;;;;;;;;;;;;;;;;;;;;;;;;;;;;;;;;;;;;;;;;;;0,02;ppm;TITR;0,03;ppm;INAA;0,02;ppm;INAA;;;;;;;;;;;;;;;;0,17;ppm;AAS;;;;;;;;;;;;;163;ppm;Unknown;;;;;;;;;;;;;;;;;;;;;;92;ppm;Unknown;;;;;;;;;;;;;;;;;;;;;;;;;;;;;;;6,1;ppm;ICP;105;ppm;Unknown;;;;;;;;;;7,9;ppm;Unknown;15;ppm;Unknown;24;ppm;Unknown;;;;;;;;;;0,03;ppm;INAA;;;;;;;;;;166;ppm;Unknown;;;;;;;;;;;;;;;;;;;;;;20;ppm;Unknown;68;ppm;Unknown;88;ppm;Unknown;;;;;;;;;;;;;;;;;;;;;;;;;;;;;;;;;;0,31;wt%;TITR;0,9;wt%;TITR;0,31;wt%;TITR;0,9;wt%;TITR;;;
GROSCAMP-W-235431;;GROSSMAN-CAMP;GROSSMAN, 1991;40,85;-73,95;0,001;;;CONTINENTAL_RIFT;;;;"AAS; COL; ICP; INAA; TITR; Unknown";WHOLE ROCK;IGNEOUS:VOLCANIC:MAFIC;DIABASE;;50,9;wt%;COL;0,88;wt%;COL;11,2;wt%;COL;;;;1,3;wt%;Unknown;;;;8,3;wt%;TITR;;;;;;;0,18;wt%;AAS;10,9;wt%;AAS;10,3;wt%;Unknown;;;;1,8;wt%;Unknown;0,69;wt%;AAS;0,08;wt%;COL;;;;;;;;;;0,12;wt%;TITR;0,72;wt%;TITR;;;;;;;;;;176;ppm;Unknown;;;;83;ppm;Unknown;;;;70;ppm;Unknown;;;;0,14;ppm;AAS;0,03;ppm;INAA;;;;;;;;;;;;;;;;;;;;;;;;;;;;;;;;;;;;;;;;;;;;;;;;;;;;;;;;;;;;;;;;;;;;;;;;;;;;;;;;;;;;;;;;;;;;;;;;;;;;;;;;;;;;;;;;;;;;;;;;;;;;;;;;;;;;;;;;;;;;;;;;;;;;;;;;;;;;;;;;;;;0,03;ppm;TITR;0,02;ppm;INAA;0,04;ppm;INAA;;;;;;;;;;;;;;;;0,14;ppm;AAS;;;;;;;;;;;;;166;ppm;Unknown;;;;;;;;;;;;;;;;;;;;;;83;ppm;Unknown;;;;;;;;;;;;;;;;;;;;;;;;;;;;;;;5,9;ppm;ICP;176;ppm;Unknown;;;;;;;;;;7;ppm;Unknown;17;ppm;Unknown;29;ppm;Unknown;;;;;;;;;;0,03;ppm;INAA;;;;;;;;;;153;ppm;Unknown;;;;;;;;;;;;;;;;;;;;;;20;ppm;Unknown;70;ppm;Unknown;87;ppm;Unknown;;;;;;;;;;;;;;;;;;;;;;;;;;;;;;;;;;0,12;wt%;TITR;0,72;wt%;TITR;0,12;wt%;TITR;0,72;wt%;TITR;;;
GROSCAMP-W-235432;;GROSSMAN-CAMP;GROSSMAN, 1991;40,85;-73,95;0,001;;;CONTINENTAL_RIFT;;;;"AAS; COL; ICP; INAA; TITR; Unknown";WHOLE ROCK;IGNEOUS:VOLCANIC:MAFIC;DIABASE;;52,2;wt%;COL;0,86;wt%;COL;11,5;wt%;COL;;;;1,3;wt%;Unknown;;;;8,9;wt%;TITR;;;;;;;0,18;wt%;AAS;11,8;wt%;AAS;10,1;wt%;Unknown;;;;1,8;wt%;Unknown;0,69;wt%;AAS;0,1;wt%;COL;;;;;;;;;;0,04;wt%;TITR;0,98;wt%;TITR;;;;;;;;;;191;ppm;Unknown;;;;71;ppm;Unknown;;;;73;ppm;Unknown;;;;0,98;ppm;AAS;0,04;ppm;INAA;;;;;;;;;;;;;;;;;;;;;;;;;;;;;;;;;;;;;;;;;;;;;;;;;;;;;;;;;;;;;;;;;;;;;;;;;;;;;;;;;;;;;;;;;;;;;;;;;;;;;;;;;;;;;;;;;;;;;;;;;;;;;;;;;;;;;;;;;;;;;;;;;;;;;;;;;;;;;;;;;;;0,01;ppm;TITR;0,02;ppm;INAA;0,01;ppm;INAA;;;;;;;;;;;;;;;;0,98;ppm;AAS;;;;;;;;;;;;;122;ppm;Unknown;;;;;;;;;;;;;;;;;;;;;;71;ppm;Unknown;;;;;;;;;;;;;;;;;;;;;;;;;;;;;;;5,2;ppm;ICP;191;ppm;Unknown;;;;;;;;;;6,3;ppm;Unknown;20;ppm;Unknown;15;ppm;Unknown;;;;;;;;;;0,04;ppm;INAA;;;;;;;;;;150;ppm;Unknown;;;;;;;;;;;;;;;;;;;;;;18;ppm;Unknown;73;ppm;Unknown;80;ppm;Unknown;;;;;;;;;;;;;;;;;;;;;;;;;;;;;;;;;;0,04;wt%;TITR;0,98;wt%;TITR;0,04;wt%;TITR;0,98;wt%;TITR;;;
GROSCAMP-W-235433;;GROSSMAN-CAMP;GROSSMAN, 1991;40,85;-73,95;0,001;;;CONTINENTAL_RIFT;;;;"AAS; COL; ICP; INAA; TITR; Unknown";WHOLE ROCK;IGNEOUS:VOLCANIC:MAFIC;DIABASE;;52,2;wt%;COL;0,87;wt%;COL;11;wt%;COL;;;;1,4;wt%;Unknown;;;;8,7;wt%;TITR;;;;;;;0,19;wt%;AAS;11,5;wt%;AAS;9,9;wt%;Unknown;;;;1,6;wt%;Unknown;0,68;wt%;AAS;0,13;wt%;COL;;;;;;;;;;0,2;wt%;TITR;0,96;wt%;TITR;;;;;;;;;;217;ppm;Unknown;;;;55;ppm;Unknown;;;;69;ppm;Unknown;;;;0,1;ppm;AAS;0,02;ppm;INAA;;;;;;;;;;;;;;;;;;;;;;;;;;;;;;;;;;;;;;;;;;;;;;;;;;;;;;;;;;;;;;;;;;;;;;;;;;;;;;;;;;;;;;;;;;;;;;;;;;;;;;;;;;;;;;;;;;;;;;;;;;;;;;;;;;;;;;;;;;;;;;;;;;;;;;;;;;;;;;;;;;;0,03;ppm;TITR;0,02;ppm;INAA;0,12;ppm;INAA;;;;;;;;;;;;;;;;0,1;ppm;AAS;;;;;;;;;;;;;145;ppm;Unknown;;;;;;;;;;;;;;;;;;;;;;55;ppm;Unknown;;;;;;;;;;;;;;;;;;;;;;;;;;;;;;;5,3;ppm;ICP;217;ppm;Unknown;;;;;;;;;;7,8;ppm;Unknown;18;ppm;Unknown;34;ppm;Unknown;;;;;;;;;;0,02;ppm;INAA;;;;;;;;;;152;ppm;Unknown;;;;;;;;;;;;;;;;;;;;;;23;ppm;Unknown;69;ppm;Unknown;81;ppm;Unknown;;;;;;;;;;;;;;;;;;;;;;;;;;;;;;;;;;0,2;wt%;TITR;0,96;wt%;TITR;0,2;wt%;TITR;0,96;wt%;TITR;;;
GROSCAMP-W-235434;;GROSSMAN-CAMP;GROSSMAN, 1991;40,85;-73,95;0,001;;;CONTINENTAL_RIFT;;;;"AAS; COL; ICP; INAA; TITR; Unknown";WHOLE ROCK;IGNEOUS:VOLCANIC:MAFIC;DIABASE;;52,4;wt%;COL;0,89;wt%;COL;13,6;wt%;COL;;;;0,84;wt%;Unknown;;;;8,2;wt%;TITR;;;;;;;0,16;wt%;AAS;9,1;wt%;AAS;11,1;wt%;Unknown;;;;1,8;wt%;Unknown;0,48;wt%;AAS;0,13;wt%;COL;;;;;;;;;;0,14;wt%;TITR;0,98;wt%;TITR;;;;;;;;;;123;ppm;Unknown;;;;76;ppm;Unknown;;;;73;ppm;Unknown;;;;0,076;ppm;AAS;0,03;ppm;INAA;;;;;;;;;;;;;;;;;;;;;;;;;;;;;;;;;;;;;;;;;;;;;;;;;;;;;;;;;;;;;;;;;;;;;;;;;;;;;;;;;;;;;;;;;;;;;;;;;;;;;;;;;;;;;;;;;;;;;;;;;;;;;;;;;;;;;;;;;;;;;;;;;;;;;;;;;;;;;;;;;;;0,03;ppm;TITR;0,02;ppm;INAA;0,02;ppm;INAA;;;;;;;;;;;;;;;;0,076;ppm;AAS;;;;;;;;;;;;;158;ppm;Unknown;;;;;;;;;;;;;;;;;;;;;;76;ppm;Unknown;;;;;;;;;;;;;;;;;;;;;;;;;;;;;;;54;ppm;ICP;123;ppm;Unknown;;;;;;;;;;6,5;ppm;Unknown;16;ppm;Unknown;23;ppm;Unknown;;;;;;;;;;0,03;ppm;INAA;;;;;;;;;;170;ppm;Unknown;;;;;;;;;;;;;;;;;;;;;;23;ppm;Unknown;73;ppm;Unknown;86;ppm;Unknown;;;;;;;;;;;;;;;;;;;;;;;;;;;;;;;;;;0,14;wt%;TITR;0,98;wt%;TITR;0,14;wt%;TITR;0,98;wt%;TITR;;;
GROSCAMP-W-235435;;GROSSMAN-CAMP;GROSSMAN, 1991;40,85;-73,95;0,001;;;CONTINENTAL_RIFT;;;;"AAS; COL; ICP; INAA; TITR; Unknown";WHOLE ROCK;IGNEOUS:PLUTONIC:MAFIC;GABBRO;;60,1;wt%;COL;1,6;wt%;COL;11,1;wt%;COL;;;;2,9;wt%;Unknown;;;;10;wt%;TITR;;;;;;;0,17;wt%;AAS;1,3;wt%;AAS;3,9;wt%;Unknown;;;;3,1;wt%;Unknown;2,7;wt%;AAS;0,51;wt%;COL;;;;;;;;;;0,44;wt%;TITR;1,4;wt%;TITR;;;;;;;;;;;;;;;;370;ppm;Unknown;;;;138;ppm;Unknown;;;;0,13;ppm;AAS;0,05;ppm;INAA;;;;;;;;;;;;;;;;;;;;;;;;;;;;;;;;;;;;;;;;;;;;;;;;;;;;;;;;;;;;;;;;;;;;;;;;;;;;;;;;;;;;;;;;;;;;;;;;;;;;;;;;;;;;;;;;;;;;;;;;;;;;;;;;;;;;;;;;;;;;;;;;;;;;;;;;;;;;;;;;;;;;;;0,09;ppm;INAA;0,46;ppm;INAA;;;;;;;;;;;;;;;;0,13;ppm;AAS;;;;;;;;;;;;;560;ppm;Unknown;;;;;;;;;;;;;;;;;;;;;;370;ppm;Unknown;;;;;;;;;;;;;;;;;;;;;;;;;;;;;;;24;ppm;ICP;;;;;;;;;;;;;;;;;;;109;ppm;Unknown;;;;;;;;;;0,05;ppm;INAA;;;;;;;;;;186;ppm;Unknown;;;;;;;;;;;;;;;;;;;;;;71;ppm;Unknown;138;ppm;Unknown;330;ppm;Unknown;;;;;;;;;;;;;;;;;;;;;;;;;;;;;;;;;;0,44;wt%;TITR;1,4;wt%;TITR;0,44;wt%;TITR;1,4;wt%;TITR;;;
GROSCAMP-W-235436;;GROSSMAN-CAMP;GROSSMAN, 1991;40,85;-73,95;0,001;;;CONTINENTAL_RIFT;;;;"AAS; COL; ICP; INAA; TITR; Unknown";WHOLE ROCK;IGNEOUS:PLUTONIC:MAFIC;GABBRO;;62,5;wt%;COL;1,6;wt%;COL;11,6;wt%;COL;;;;3,2;wt%;Unknown;;;;8,5;wt%;TITR;;;;;;;0,13;wt%;AAS;1,2;wt%;AAS;3,4;wt%;Unknown;;;;4,4;wt%;Unknown;2,5;wt%;AAS;0,45;wt%;COL;;;;;;;;;;0,18;wt%;TITR;1;wt%;TITR;;;;;;;;;;;;;;;;203;ppm;Unknown;;;;88;ppm;Unknown;;;;0,066;ppm;AAS;0,05;ppm;INAA;;;;;;;;;;;;;;;;;;;;;;;;;;;;;;;;;;;;;;;;;;;;;;;;;;;;;;;;;;;;;;;;;;;;;;;;;;;;;;;;;;;;;;;;;;;;;;;;;;;;;;;;;;;;;;;;;;;;;;;;;;;;;;;;;;;;;;;;;;;;;;;;;;;;;;;;;;;;;;;;;;;0,04;ppm;TITR;0,1;ppm;INAA;0,37;ppm;INAA;;;;;;;;;;;;;;;;0,066;ppm;AAS;;;;;;;;;;;;;360;ppm;Unknown;;;;;;;;;;;;;;;;;;;;;;203;ppm;Unknown;;;;;;;;;;;;;;;;;;;;;;;;;;;;;;;29;ppm;ICP;;;;;;;;;;;;;;;;;;;86;ppm;Unknown;;;;;;;;;;0,05;ppm;INAA;;;;;;;;;;126;ppm;Unknown;;;;;;;;;;;;;;;;;;;;;;77;ppm;Unknown;88;ppm;Unknown;380;ppm;Unknown;;;;;;;;;;;;;;;;;;;;;;;;;;;;;;;;;;0,18;wt%;TITR;1;wt%;TITR;0,18;wt%;TITR;1;wt%;TITR;;;
GROSCAMP-W-235438;;GROSSMAN-CAMP;GROSSMAN, 1991;40,85;-73,95;0,001;;;CONTINENTAL_RIFT;;;;"AAS; COL; ICP; INAA; TITR; Unknown";WHOLE ROCK;IGNEOUS:PLUTONIC:MAFIC;GABBRO;;55,3;wt%;COL;2,8;wt%;COL;11,4;wt%;COL;;;;3,9;wt%;Unknown;;;;11,9;wt%;TITR;;;;;;;0,23;wt%;AAS;1,7;wt%;AAS;4,5;wt%;Unknown;;;;2,8;wt%;Unknown;2,4;wt%;AAS;0,43;wt%;COL;;;;;;;;;;0,55;wt%;TITR;1,5;wt%;TITR;;;;;;;;;;6;ppm;Unknown;;;;560;ppm;Unknown;;;;138;ppm;Unknown;;;;0,6;ppm;AAS;0,08;ppm;INAA;;;;;;;;;;;;;;;;;;;;;;;;;;;;;;;;;;;;;;;;;;;;;;;;;;;;;;;;;;;;;;;;;;;;;;;;;;;;;;;;;;;;;;;;;;;;;;;;;;;;;;;;;;;;;;;;;;;;;;;;;;;;;;;;;;;;;;;;;;;;;;;;;;;;;;;;;;;;;;;;;;;0,08;ppm;TITR;0,07;ppm;INAA;0,4;ppm;INAA;;;;;;;;;;;;;;;;0,6;ppm;AAS;;;;;;;;;;;;;510;ppm;Unknown;;;;;;;;;;;;;;;;;;;;;;560;ppm;Unknown;;;;;;;;;;;;;;;;;;;;;;;;;;;;;;;22;ppm;ICP;6;ppm;Unknown;;;;;;;;;;;;;2,4;ppm;Unknown;85;ppm;Unknown;;;;;;;;;;0,08;ppm;INAA;;;;;;;;;;211;ppm;Unknown;;;;;;;;;;;;;;;;;;;;;;66;ppm;Unknown;138;ppm;Unknown;268;ppm;Unknown;;;;;;;;;;;;;;;;;;;;;;;;;;;;;;;;;;0,55;wt%;TITR;1,5;wt%;TITR;0,55;wt%;TITR;1,5;wt%;TITR;;;
GROSCAMP-W-235439;;GROSSMAN-CAMP;GROSSMAN, 1991;40,85;-73,95;0,001;;;CONTINENTAL_RIFT;;;;"AAS; COL; ICP; INAA; TITR; Unknown";WHOLE ROCK;IGNEOUS:PLUTONIC:MAFIC;GABBRO;;53,8;wt%;COL;3,5;wt%;COL;11,5;wt%;COL;;;;3,8;wt%;Unknown;;;;12,3;wt%;TITR;;;;;;;0,25;wt%;AAS;2,5;wt%;AAS;6,4;wt%;Unknown;;;;2,7;wt%;Unknown;1,9;wt%;AAS;0,37;wt%;COL;;;;;;;;;;0,65;wt%;TITR;1;wt%;TITR;;;;;;;;;;13;ppm;Unknown;;;;278;ppm;Unknown;;;;126;ppm;Unknown;;;;0,12;ppm;AAS;0,04;ppm;INAA;;;;;;;;;;;;;;;;;;;;;;;;;;;;;;;;;;;;;;;;;;;;;;;;;;;;;;;;;;;;;;;;;;;;;;;;;;;;;;;;;;;;;;;;;;;;;;;;;;;;;;;;;;;;;;;;;;;;;;;;;;;;;;;;;;;;;;;;;;;;;;;;;;;;;;;;;;;;;;;;;;;0,04;ppm;TITR;0,06;ppm;INAA;0,34;ppm;INAA;;;;;;;;;;;;;;;;0,12;ppm;AAS;;;;;;;;;;;;;410;ppm;Unknown;;;;;;;;;;;;;;;;;;;;;;278;ppm;Unknown;;;;;;;;;;;;;;;;;;;;;;;;;;;;;;;22;ppm;ICP;13;ppm;Unknown;;;;;;;;;;150;ppm;Unknown;5,6;ppm;Unknown;63;ppm;Unknown;;;;;;;;;;0,04;ppm;INAA;;;;;;;;;;205;ppm;Unknown;;;;;;;;;;;;;;;;;;;;;;48;ppm;Unknown;126;ppm;Unknown;218;ppm;Unknown;;;;;;;;;;;;;;;;;;;;;;;;;;;;;;;;;;0,65;wt%;TITR;1;wt%;TITR;0,65;wt%;TITR;1;wt%;TITR;;;
GROSCAMP-W-235440;;GROSSMAN-CAMP;GROSSMAN, 1991;40,85;-73,95;0,001;;;CONTINENTAL_RIFT;;;;"AAS; COL; ICP; INAA; TITR; Unknown";WHOLE ROCK;IGNEOUS:PLUTONIC:MAFIC;GABBRO;;54,9;wt%;COL;3,1;wt%;COL;11,5;wt%;COL;;;;3,2;wt%;Unknown;;;;9,8;wt%;TITR;;;;;;;0,18;wt%;AAS;2,8;wt%;AAS;6,8;wt%;Unknown;;;;4,5;wt%;Unknown;0,49;wt%;AAS;0,35;wt%;COL;;;;;;;;;;0,7;wt%;TITR;0,9;wt%;TITR;;;;;;;;;;11;ppm;Unknown;;;;173;ppm;Unknown;;;;100;ppm;Unknown;;;;0,13;ppm;AAS;0,04;ppm;INAA;;;;;;;;;;;;;;;;;;;;;;;;;;;;;;;;;;;;;;;;;;;;;;;;;;;;;;;;;;;;;;;;;;;;;;;;;;;;;;;;;;;;;;;;;;;;;;;;;;;;;;;;;;;;;;;;;;;;;;;;;;;;;;;;;;;;;;;;;;;;;;;;;;;;;;;;;;;;;;;;;;;0,06;ppm;TITR;0,08;ppm;INAA;0,15;ppm;INAA;;;;;;;;;;;;;;;;0,13;ppm;AAS;;;;;;;;;;;;;310;ppm;Unknown;;;;;;;;;;;;;;;;;;;;;;173;ppm;Unknown;;;;;;;;;;;;;;;;;;;;;;;;;;;;;;;21;ppm;ICP;11;ppm;Unknown;;;;;;;;;;190;ppm;Unknown;5,9;ppm;Unknown;38;ppm;Unknown;;;;;;;;;;0,04;ppm;INAA;;;;;;;;;;187;ppm;Unknown;;;;;;;;;;;;;;;;;;;;;;48;ppm;Unknown;100;ppm;Unknown;242;ppm;Unknown;;;;;;;;;;;;;;;;;;;;;;;;;;;;;;;;;;0,7;wt%;TITR;0,9;wt%;TITR;0,7;wt%;TITR;0,9;wt%;TITR;;;