SAMPLE ID;IGSN;EXPEDITION ID;REFERENCES;LATITUDE;LONGITUDE;LOC PREC;MIN ELEVATION;MAX ELEVATION;TECTONIC SETTING;MIN AGE;AGE;MAX AGE;METHOD;ANALYZED MATERIAL;ROCK TYPE;ROCK NAME;MINERAL;SIO2;SIO2 Units;SIO2 Method;TIO2;TIO2 Units;TIO2 Method;AL2O3;AL2O3 Units;AL2O3 Method;CR2O3;CR2O3 Units;CR2O3 Method;FE2O3;FE2O3 Units;FE2O3 Method;FE2O3T;FE2O3T Units;FE2O3T Method;FEO;FEO Units;FEO Method;FEOT;FEOT Units;FEOT Method;NIO;NIO Units;NIO Method;MNO;MNO Units;MNO Method;MGO;MGO Units;MGO Method;CAO;CAO Units;CAO Method;SRO;SRO Units;SRO Method;NA2O;NA2O Units;NA2O Method;K2O;K2O Units;K2O Method;P2O5;P2O5 Units;P2O5 Method;BAO;BAO Units;BAO Method;LOI;LOI Units;LOI Method;H2O;H2O Units;H2O Method;H2O_M;H2O_M Units;H2O_M Method;H2O_P;H2O_P Units;H2O_P Method;SO3;SO3 Units;SO3 Method;COO;COO Units;COO Method;MN;MN Units;MN Method;NI;NI Units;NI Method;CO;CO Units;CO Method;CU;CU Units;CU Method;CD;CD Units;CD Method;ZN;ZN Units;ZN Method;AS;AS Units;AS Method;AG;AG Units;AG Method;S;S Units;S Method;ZRO2;ZRO2 Units;ZRO2 Method;AL;AL Units;AL Method;CA;CA Units;CA Method;SR87_SR86;SR87_SR86 Units;SR87_SR86 Method;SR87_SR86_INI;SR87_SR86_INI Units;SR87_SR86_INI Method;RB87_SR86;RB87_SR86 Units;RB87_SR86 Method;ND143_ND144;ND143_ND144 Units;ND143_ND144 Method;ND143_ND144_INI;ND143_ND144_INI Units;ND143_ND144_INI Method;SM147_ND144;SM147_ND144 Units;SM147_ND144 Method;E_ND;E_ND Units;E_ND Method;E_ND_INI;E_ND_INI Units;E_ND_INI Method;PB204_PB206;PB204_PB206 Units;PB204_PB206 Method;PB206_PB204;PB206_PB204 Units;PB206_PB204 Method;PB206_PB204_INI;PB206_PB204_INI Units;PB206_PB204_INI Method;PB207_PB204;PB207_PB204 Units;PB207_PB204 Method;PB207_PB204_INI;PB207_PB204_INI Units;PB207_PB204_INI Method;PB207_PB206;PB207_PB206 Units;PB207_PB206 Method;PB208_PB204;PB208_PB204 Units;PB208_PB204 Method;PB208_PB204_INI;PB208_PB204_INI Units;PB208_PB204_INI Method;PB208_PB206;PB208_PB206 Units;PB208_PB206 Method;HF176_HF177;HF176_HF177 Units;HF176_HF177 Method;RE187_OS188;RE187_OS188 Units;RE187_OS188 Method;OS187_OS188;OS187_OS188 Units;OS187_OS188 Method;OS187_OS188_INI;OS187_OS188_INI Units;OS187_OS188_INI Method;G_OS;G_OS Units;G_OS Method;G_OS_INI;G_OS_INI Units;G_OS_INI Method;ND143_ND144_INI;ND143_ND144_INI Units;ND143_ND144_INI Method;PB206_PB204_INI;PB206_PB204_INI Units;PB206_PB204_INI Method;PB207_PB204_INI;PB207_PB204_INI Units;PB207_PB204_INI Method;PB208_PB204_INI;PB208_PB204_INI Units;PB208_PB204_INI Method;SR87_SR86_INI;SR87_SR86_INI Units;SR87_SR86_INI Method;HE;HE Units;HE Method;HE3;HE3 Units;HE3 Method;HE3_HE4_R_RA;HE3_HE4_R_RA Units;HE3_HE4_R_RA Method;AR36;AR36 Units;AR36 Method;AR40;AR40 Units;AR40 Method;AR40_AR36;AR40_AR36 Units;AR40_AR36 Method;NE20;NE20 Units;NE20 Method;NE20_NE22;NE20_NE22 Units;NE20_NE22 Method;NE21_NE22;NE21_NE22 Units;NE21_NE22 Method;LA;LA Units;LA Method;CE;CE Units;CE Method;PR;PR Units;PR Method;ND;ND Units;ND Method;SM;SM Units;SM Method;EU;EU Units;EU Method;GD;GD Units;GD Method;TB;TB Units;TB Method;DY;DY Units;DY Method;HO;HO Units;HO Method;ER;ER Units;ER Method;TM;TM Units;TM Method;YB;YB Units;YB Method;LU;LU Units;LU Method;CO2;CO2 Units;CO2 Method;F;F Units;F Method;CL;CL Units;CL Method;U238_PB204;U238_PB204 Units;U238_PB204 Method;TH230_TH232;TH230_TH232 Units;TH230_TH232 Method;RA226_ACTIVITY;RA226_ACTIVITY Units;RA226_ACTIVITY Method;PB210_RA226;PB210_RA226 Units;PB210_RA226 Method;PB210_ACTIVITY;PB210_ACTIVITY Units;PB210_ACTIVITY Method;AG;AG Units;AG Method;AL;AL Units;AL Method;AS;AS Units;AS Method;AU;AU Units;AU Method;B;B Units;B Method;BA;BA Units;BA Method;BE;BE Units;BE Method;BI;BI Units;BI Method;CA;CA Units;CA Method;CD;CD Units;CD Method;CO;CO Units;CO Method;CR;CR Units;CR Method;CS;CS Units;CS Method;CU;CU Units;CU Method;GA;GA Units;GA Method;GER;GER Units;GER Method;HF;HF Units;HF Method;INDIUM;INDIUM Units;INDIUM Method;IR;IR Units;IR Method;K;K Units;K Method;LI;LI Units;LI Method;MN;MN Units;MN Method;MO;MO Units;MO Method;NA;NA Units;NA Method;NB;NB Units;NB Method;NI;NI Units;NI Method;OS;OS Units;OS Method;P;P Units;P Method;PB;PB Units;PB Method;PD;PD Units;PD Method;PT;PT Units;PT Method;RB;RB Units;RB Method;RE;RE Units;RE Method;RH;RH Units;RH Method;RU;RU Units;RU Method;S;S Units;S Method;SB;SB Units;SB Method;SC;SC Units;SC Method;SN;SN Units;SN Method;SR;SR Units;SR Method;TA;TA Units;TA Method;TH;TH Units;TH Method;TI;TI Units;TI Method;TL;TL Units;TL Method;U;U Units;U Method;V;V Units;V Method;W;W Units;W Method;Y;Y Units;Y Method;ZN;ZN Units;ZN Method;ZR;ZR Units;ZR Method;DELTA_O18;DELTA_O18 Units;DELTA_O18 Method;DELTA_C13;DELTA_C13 Units;DELTA_C13 Method;DELTA_MO98;DELTA_MO98 Units;DELTA_MO98 Method;DELTA_ZN66;DELTA_ZN66 Units;DELTA_ZN66 Method;DELTA_ZN68;DELTA_ZN68 Units;DELTA_ZN68 Method;OS188;OS188 Units;OS188 Method;FE3P_FET;FE3P_FET Units;FE3P_FET Method;TI;TI Units;TI Method;AS;AS Units;AS Method;AS;AS Units;AS Method;GER;GER Units;GER Method;H2O_M;H2O_M Units;H2O_M Method;H2O_P;H2O_P Units;H2O_P Method;H2O_M;H2O_M Units;H2O_M Method;H2O_P;H2O_P Units;H2O_P Method;INDIUM;INDIUM Units;INDIUM Method
GROSCAMP-W-241410;;GROSSMAN-CAMP;GROSSMAN, 1991;38,375;-77,8708;0,001;;;CONTINENTAL_RIFT;;;;"AAS; COL; ES; ICP; ICPMS; INAA; TITR; Unknown";WHOLE ROCK;IGNEOUS:VOLCANIC:MAFIC;DIABASE;;51;wt%;COL;0,96;wt%;COL;13;wt%;COL;;;;2,67;wt%;Unknown;;;;8,62;wt%;TITR;;;;;;;0,18;wt%;AAS;10,3;wt%;AAS;10,9;wt%;Unknown;;;;1,85;wt%;Unknown;0,5;wt%;AAS;0,12;wt%;COL;;;;;;;;;;0,25;wt%;TITR;0,57;wt%;TITR;;;;;;;;;;177;ppm;Unknown;58;ppm;Unknown;105;ppm;Unknown;;;;75;ppm;Unknown;1,5;ppm;INAA;0,036;ppm;AAS;0,02;ppm;INAA;;;;;;;;;;;;;;;;;;;;;;;;;;;;;;;;;;;;;;;;;;;;;;;;;;;;;;;;;;;;;;;;;;;;;;;;;;;;;;;;;;;;;;;;;;;;;;;;;;;;;;;;;;;;;;;;;;;;;;;;;9,6;ppm;INAA;20,4;ppm;INAA;;;;10;ppm;INAA;3,1;ppm;INAA;0,9;ppm;INAA;;;;0,53;ppm;INAA;;;;;;;;;;;;;1,9;ppm;INAA;0,29;ppm;INAA;0,01;ppm;TITR;0,01;ppm;INAA;;;;;;;;;;;;;;;;;;;0,036;ppm;AAS;;;;1,5;ppm;INAA;3,1;ppm;INAA;2;ppm;ES;141;ppm;Unknown;;;;;;;;;;;;;58;ppm;Unknown;660;ppm;Unknown;1,2;ppm;INAA;105;ppm;Unknown;;;;;;;2,2;ppm;INAA;;;;1,2;ppm;ICPMS;;;;;;;;;;;;;;;;5,4;ppm;ICP;177;ppm;Unknown;;;;;;;;;;9,7;ppm;Unknown;21;ppm;Unknown;16;ppm;Unknown;;;;1,1;ppm;Unknown;1;ppm;ICPMS;0,02;ppm;INAA;0,25;ppm;INAA;38;ppm;INAA;;;;158;ppm;Unknown;0,45;ppm;INAA;1,9;ppm;INAA;;;;;;;0,39;ppm;INAA;;;;;;;19;ppm;Unknown;75;ppm;Unknown;85;ppm;Unknown;;;;;;;;;;;;;;;;;;;;;;;;;1,5;ppm;INAA;1,5;ppm;INAA;;;;0,25;wt%;TITR;0,57;wt%;TITR;0,25;wt%;TITR;0,57;wt%;TITR;;;
GROSCAMP-W-241411;;GROSSMAN-CAMP;GROSSMAN, 1991;38,75;-77,5;0,001;;;CONTINENTAL_RIFT;;;;"AAS; COL; ES; ICP; INAA; TITR; Unknown";WHOLE ROCK;IGNEOUS:VOLCANIC:MAFIC;DIABASE;;51,1;wt%;COL;0,7;wt%;COL;13,5;wt%;COL;;;;1,62;wt%;Unknown;;;;9,74;wt%;TITR;;;;;;;0,21;wt%;AAS;9,6;wt%;AAS;11,1;wt%;Unknown;;;;1,87;wt%;Unknown;0,33;wt%;AAS;0,08;wt%;COL;;;;;;;;;;0,18;wt%;TITR;0,52;wt%;TITR;;;;;;;;;;83;ppm;Unknown;54;ppm;Unknown;63;ppm;Unknown;;;;72;ppm;Unknown;1,1;ppm;INAA;0,026;ppm;AAS;0,05;ppm;INAA;;;;;;;;;;;;;;;;;;;;;;;;;;;;;;;;;;;;;;;;;;;;;;;;;;;;;;;;;;;;;;;;;;;;;;;;;;;;;;;;;;;;;;;;;;;;;;;;;;;;;;;;;;;;;;;;;;;;;;;;;5,5;ppm;INAA;11;ppm;INAA;;;;;;;2,05;ppm;INAA;0,65;ppm;INAA;;;;0,43;ppm;INAA;;;;;;;;;;;;;2,2;ppm;INAA;0,33;ppm;INAA;0,04;ppm;TITR;;;;;;;;;;;;;;;;;;;;;;0,026;ppm;AAS;;;;1,1;ppm;INAA;;;;2;ppm;ES;88;ppm;Unknown;;;;;;;;;;;;;54;ppm;Unknown;310;ppm;Unknown;0,87;ppm;INAA;63;ppm;Unknown;;;;;;;1,5;ppm;INAA;;;;;;;;;;;;;;;;;;;;;;2,9;ppm;ICP;83;ppm;Unknown;;;;;;;;;;;;;3;ppm;Unknown;11;ppm;Unknown;;;;;;;;;;0,05;ppm;INAA;;;;45;ppm;INAA;;;;119;ppm;Unknown;0,22;ppm;INAA;1,2;ppm;INAA;;;;;;;0,23;ppm;INAA;;;;;;;21;ppm;Unknown;72;ppm;Unknown;59;ppm;Unknown;;;;;;;;;;;;;;;;;;;;;;;;;1,1;ppm;INAA;1,1;ppm;INAA;;;;0,18;wt%;TITR;0,52;wt%;TITR;0,18;wt%;TITR;0,52;wt%;TITR;;;
GROSCAMP-W-241412;;GROSSMAN-CAMP;GROSSMAN, 1991;42,5;-77,3;0,001;;;CONTINENTAL_RIFT;;;;"AAS; COL; ES; ICP; ICPMS; INAA; TITR; Unknown";WHOLE ROCK;IGNEOUS:VOLCANIC:MAFIC;DIABASE;;52,1;wt%;COL;0,98;wt%;COL;13,2;wt%;COL;;;;1,76;wt%;Unknown;;;;8,58;wt%;TITR;;;;;;;0,17;wt%;AAS;9,67;wt%;AAS;11,2;wt%;Unknown;;;;1,86;wt%;Unknown;0,48;wt%;AAS;0,12;wt%;COL;;;;;;;;;;0,08;wt%;TITR;0,31;wt%;TITR;;;;;;;;;;126;ppm;Unknown;51;ppm;Unknown;104;ppm;Unknown;;;;67;ppm;Unknown;;;;0,034;ppm;AAS;0,01;ppm;INAA;;;;;;;;;;;;;;;;;;;;;;;;;;;;;;;;;;;;;;;;;;;;;;;;;;;;;;;;;;;;;;;;;;;;;;;;;;;;;;;;;;;;;;;;;;;;;;;;;;;;;;;;;;;;;;;;;;;;;;;;;9,6;ppm;INAA;20;ppm;INAA;;;;9,6;ppm;INAA;3,1;ppm;INAA;0,89;ppm;INAA;;;;0,54;ppm;INAA;;;;;;;;;;;;;2;ppm;INAA;0,29;ppm;INAA;;;;;;;;;;;;;;;;;;;;;;;;;0,034;ppm;AAS;;;;;;;;;;2;ppm;ES;116;ppm;Unknown;;;;;;;;;;;;;51;ppm;Unknown;600;ppm;Unknown;0,71;ppm;INAA;104;ppm;Unknown;;;;;;;2,2;ppm;INAA;;;;0,9;ppm;ICPMS;;;;;;;;;;;;;;;;5,9;ppm;ICP;126;ppm;Unknown;;;;;;;;;;8,4;ppm;Unknown;17;ppm;Unknown;20;ppm;Unknown;;;;0,8;ppm;Unknown;0,9;ppm;ICPMS;0,01;ppm;INAA;;;;38;ppm;INAA;;;;175;ppm;Unknown;0,44;ppm;INAA;1,8;ppm;INAA;;;;;;;0,39;ppm;INAA;;;;;;;24;ppm;Unknown;67;ppm;Unknown;83;ppm;Unknown;;;;;;;;;;;;;;;;;;;;;;;;;;;;;;;;;;0,08;wt%;TITR;0,31;wt%;TITR;0,08;wt%;TITR;0,31;wt%;TITR;;;
GROSCAMP-W-241413;;GROSSMAN-CAMP;GROSSMAN, 1991;42,5;-77,3;0,001;;;CONTINENTAL_RIFT;;;;"AAS; COL; ES; ICP; ICPMS; INAA; TITR; Unknown";WHOLE ROCK;IGNEOUS:VOLCANIC:MAFIC;DIABASE;;52,1;wt%;COL;1,14;wt%;COL;13,7;wt%;COL;;;;1,81;wt%;Unknown;;;;8,95;wt%;TITR;;;;;;;0,18;wt%;AAS;8,08;wt%;AAS;11,1;wt%;Unknown;;;;2,05;wt%;Unknown;0,57;wt%;AAS;0,13;wt%;COL;;;;;;;;;;0,09;wt%;TITR;0,66;wt%;TITR;;;;;;;;;;96;ppm;Unknown;47;ppm;Unknown;109;ppm;Unknown;;;;76;ppm;Unknown;;;;0,047;ppm;AAS;0,03;ppm;INAA;;;;;;;;;;;;;;;;;;;;;;;;;;;;;;;;;;;;;;;;;;;;;;;;;;;;;;;;;;;;;;;;;;;;;;;;;;;;;;;;;;;;;;;;;;;;;;;;;;;;;;;;;;;;;;;;;;;;;;;;;10,7;ppm;INAA;22;ppm;INAA;;;;;;;3,4;ppm;INAA;1;ppm;INAA;;;;0,66;ppm;INAA;;;;;;;;;;;;;2,1;ppm;INAA;0,31;ppm;INAA;0,06;ppm;TITR;0,01;ppm;INAA;0,01;ppm;INAA;;;;;;;;;;;;;;;;0,047;ppm;AAS;;;;;;;7,1;ppm;INAA;3;ppm;ES;146;ppm;Unknown;;;;;;;;;;;;;47;ppm;Unknown;350;ppm;Unknown;1,1;ppm;INAA;109;ppm;Unknown;;;;;;;2,4;ppm;INAA;;;;0,6;ppm;ICPMS;;;;;;;;;;;;;;;;7,5;ppm;ICP;96;ppm;Unknown;;;;;;;;;;10;ppm;Unknown;12;ppm;Unknown;15;ppm;Unknown;;;;0,6;ppm;Unknown;0,6;ppm;ICPMS;0,03;ppm;INAA;;;;37;ppm;INAA;;;;165;ppm;Unknown;0,5;ppm;INAA;2;ppm;INAA;;;;;;;0,41;ppm;INAA;;;;;;;21;ppm;Unknown;76;ppm;Unknown;86;ppm;Unknown;;;;;;;;;;;;;;;;;;;;;;;;;;;;;;;;;;0,09;wt%;TITR;0,66;wt%;TITR;0,09;wt%;TITR;0,66;wt%;TITR;;;
GROSCAMP-W-241414;;GROSSMAN-CAMP;GROSSMAN, 1991;42,5;-77,3;0,001;;;CONTINENTAL_RIFT;;;;"AAS; COL; ES; ICP; ICPMS; INAA; TITR; Unknown";WHOLE ROCK;IGNEOUS:VOLCANIC:MAFIC;DIABASE;;52,4;wt%;COL;0,76;wt%;COL;16,2;wt%;COL;;;;1,91;wt%;Unknown;;;;7,16;wt%;TITR;;;;;;;0,15;wt%;AAS;7,5;wt%;AAS;12,3;wt%;Unknown;;;;2,09;wt%;Unknown;0,43;wt%;AAS;0,09;wt%;COL;;;;;;;;;;0,11;wt%;TITR;0,19;wt%;TITR;;;;;;;;;;85;ppm;Unknown;43;ppm;Unknown;73;ppm;Unknown;;;;57;ppm;Unknown;;;;0,03;ppm;AAS;0,01;ppm;INAA;;;;;;;;;;;;;;;;;;;;;;;;;;;;;;;;;;;;;;;;;;;;;;;;;;;;;;;;;;;;;;;;;;;;;;;;;;;;;;;;;;;;;;;;;;;;;;;;;;;;;;;;;;;;;;;;;;;;;;;;;7,7;ppm;INAA;15;ppm;INAA;;;;;;;2,45;ppm;INAA;0,85;ppm;INAA;;;;0,45;ppm;INAA;;;;;;;;;;;;;1,6;ppm;INAA;0,25;ppm;INAA;;;;;;;;;;;;;;;;;;;;;;;;;0,03;ppm;AAS;;;;;;;;;;2;ppm;ES;107;ppm;Unknown;;;;;;;;;;;;;43;ppm;Unknown;200;ppm;Unknown;0,54;ppm;INAA;73;ppm;Unknown;;;;;;;1,7;ppm;INAA;;;;;;;;;;;;;;;;;;;;;;5;ppm;ICP;85;ppm;Unknown;;;;;;;;;;7,2;ppm;Unknown;18;ppm;Unknown;12;ppm;Unknown;;;;0,7;ppm;Unknown;0,8;ppm;ICPMS;0,01;ppm;INAA;0,18;ppm;INAA;36;ppm;INAA;;;;197;ppm;Unknown;0,32;ppm;INAA;1,4;ppm;INAA;;;;;;;0,47;ppm;INAA;;;;;;;16;ppm;Unknown;57;ppm;Unknown;69;ppm;Unknown;;;;;;;;;;;;;;;;;;;;;;;;;;;;;;;;;;0,11;wt%;TITR;0,19;wt%;TITR;0,11;wt%;TITR;0,19;wt%;TITR;;;
GROSCAMP-W-241415;;GROSSMAN-CAMP;GROSSMAN, 1991;42,5;-77,3;0,001;;;CONTINENTAL_RIFT;;;;"AAS; COL; ES; ICP; ICPMS; INAA; TITR; Unknown";WHOLE ROCK;IGNEOUS:VOLCANIC:MAFIC;DIABASE;;52,3;wt%;COL;1,02;wt%;COL;13,3;wt%;COL;;;;1,95;wt%;Unknown;;;;8,67;wt%;TITR;;;;;;;0,17;wt%;AAS;9,67;wt%;AAS;11,1;wt%;Unknown;;;;1,94;wt%;Unknown;0,5;wt%;AAS;0,12;wt%;COL;;;;;;;;;;0,05;wt%;TITR;0,26;wt%;TITR;;;;;;;;;;117;ppm;Unknown;52;ppm;Unknown;104;ppm;Unknown;;;;66;ppm;Unknown;;;;0,034;ppm;AAS;0,02;ppm;INAA;;;;;;;;;;;;;;;;;;;;;;;;;;;;;;;;;;;;;;;;;;;;;;;;;;;;;;;;;;;;;;;;;;;;;;;;;;;;;;;;;;;;;;;;;;;;;;;;;;;;;;;;;;;;;;;;;;;;;;;;;9,8;ppm;INAA;20;ppm;INAA;;;;11;ppm;INAA;3,1;ppm;INAA;0,93;ppm;INAA;;;;0,56;ppm;INAA;;;;;;;;;;;;;2;ppm;INAA;0,29;ppm;INAA;;;;;;;;;;;;;;;;;;;;;;;;;0,034;ppm;AAS;;;;;;;;;;2;ppm;ES;128;ppm;Unknown;;;;;;;;;;;;;52;ppm;Unknown;590;ppm;Unknown;0,68;ppm;INAA;104;ppm;Unknown;;;;;;;2,22;ppm;INAA;;;;0,7;ppm;ICPMS;;;;;;;;;;;;;;;;6,2;ppm;ICP;117;ppm;Unknown;;;;;;;;;;7,2;ppm;Unknown;18;ppm;Unknown;15;ppm;Unknown;;;;0,7;ppm;Unknown;0,8;ppm;ICPMS;0,02;ppm;INAA;;;;39;ppm;INAA;;;;162;ppm;Unknown;0,47;ppm;INAA;1,8;ppm;INAA;;;;;;;0,43;ppm;INAA;;;;;;;19;ppm;Unknown;66;ppm;Unknown;81;ppm;Unknown;;;;;;;;;;;;;;;;;;;;;;;;;;;;;;;;;;0,05;wt%;TITR;0,26;wt%;TITR;0,05;wt%;TITR;0,26;wt%;TITR;;;
GROSCAMP-W-241416;;GROSSMAN-CAMP;GROSSMAN, 1991;38,375;-78;0,001;;;CONTINENTAL_RIFT;;;;"AAS; COL; ES; ICP; ICPMS; INAA; TITR; Unknown";WHOLE ROCK;IGNEOUS:VOLCANIC:MAFIC;DIABASE;;52,3;wt%;COL;0,73;wt%;COL;14,4;wt%;COL;;;;1,8;wt%;Unknown;;;;7,28;wt%;TITR;;;;;;;0,16;wt%;AAS;9,36;wt%;AAS;11,8;wt%;Unknown;;;;1,91;wt%;Unknown;0,48;wt%;AAS;0,08;wt%;COL;;;;;;;;;;0,11;wt%;TITR;0,41;wt%;TITR;;;;;;;;;;110;ppm;Unknown;46;ppm;Unknown;64;ppm;Unknown;;;;52;ppm;Unknown;;;;0,034;ppm;AAS;0,02;ppm;INAA;;;;;;;;;;;;;;;;;;;;;;;;;;;;;;;;;;;;;;;;;;;;;;;;;;;;;;;;;;;;;;;;;;;;;;;;;;;;;;;;;;;;;;;;;;;;;;;;;;;;;;;;;;;;;;;;;;;;;;;;;7,6;ppm;INAA;16;ppm;INAA;;;;7,9;ppm;INAA;2,3;ppm;INAA;0,78;ppm;INAA;;;;0,46;ppm;INAA;;;;;;;;;;;;;1,6;ppm;INAA;0,25;ppm;INAA;0,04;ppm;TITR;;;;;;;;;;;;;;;;;;;;;;0,034;ppm;AAS;;;;;;;;;;3;ppm;ES;121;ppm;Unknown;;;;;;;;;;;;;46;ppm;Unknown;580;ppm;Unknown;0,67;ppm;INAA;64;ppm;Unknown;;;;;;;1,7;ppm;INAA;;;;0,6;ppm;ICPMS;;;;;;;;;;;;;;;;5,2;ppm;ICP;110;ppm;Unknown;;;;;;;;;;6,3;ppm;Unknown;20;ppm;Unknown;17;ppm;Unknown;;;;0,8;ppm;Unknown;1;ppm;ICPMS;0,02;ppm;INAA;;;;37;ppm;INAA;;;;172;ppm;Unknown;0,36;ppm;INAA;1,4;ppm;INAA;;;;;;;;;;;;;;;;23;ppm;Unknown;52;ppm;Unknown;72;ppm;Unknown;;;;;;;;;;;;;;;;;;;;;;;;;;;;;;;;;;0,11;wt%;TITR;0,41;wt%;TITR;0,11;wt%;TITR;0,41;wt%;TITR;;;
GROSCAMP-W-241417;;GROSSMAN-CAMP;GROSSMAN, 1991;38,375;-77,8708;0,001;;;CONTINENTAL_RIFT;;;;"AAS; COL; ES; ICP; ICPMS; INAA; TITR; Unknown";WHOLE ROCK;IGNEOUS:VOLCANIC:MAFIC;DIABASE;;51;wt%;COL;0,85;wt%;COL;12,4;wt%;COL;;;;1,88;wt%;Unknown;;;;8,6;wt%;TITR;;;;;;;0,18;wt%;AAS;11,6;wt%;AAS;11,1;wt%;Unknown;;;;1,7;wt%;Unknown;0,43;wt%;AAS;0,09;wt%;COL;;;;;;;;;;0,32;wt%;TITR;0,4;wt%;TITR;;;;;;;;;;209;ppm;Unknown;59;ppm;Unknown;87;ppm;Unknown;;;;64;ppm;Unknown;;;;0,034;ppm;AAS;0,02;ppm;INAA;;;;;;;;;;;;;;;;;;;;;;;;;;;;;;;;;;;;;;;;;;;;;;;;;;;;;;;;;;;;;;;;;;;;;;;;;;;;;;;;;;;;;;;;;;;;;;;;;;;;;;;;;;;;;;;;;;;;;;;;;8;ppm;INAA;17;ppm;INAA;;;;;;;2,62;ppm;INAA;0,76;ppm;INAA;;;;0,47;ppm;INAA;;;;;;;;;;;;;1,8;ppm;INAA;0,3;ppm;INAA;0,04;ppm;TITR;;;;;;;;;;;;;;;;;;;;;;0,034;ppm;AAS;;;;;;;;;;2;ppm;ES;120;ppm;Unknown;;;;;;;;;;;;;59;ppm;Unknown;790;ppm;Unknown;1,5;ppm;INAA;87;ppm;Unknown;;;;;;;1,9;ppm;INAA;;;;1,2;ppm;ICPMS;;;;;;;;;;;;;;;;5,4;ppm;ICP;209;ppm;Unknown;;;;;;;;;;8,2;ppm;Unknown;22;ppm;Unknown;11;ppm;Unknown;;;;0,9;ppm;Unknown;1,1;ppm;ICPMS;0,02;ppm;INAA;0,21;ppm;INAA;37;ppm;INAA;;;;138;ppm;Unknown;0,39;ppm;INAA;1,6;ppm;INAA;;;;;;;0,32;ppm;INAA;;;;;;;18;ppm;Unknown;64;ppm;Unknown;76;ppm;Unknown;;;;;;;;;;;;;;;;;;;;;;;;;;;;;;;;;;0,32;wt%;TITR;0,4;wt%;TITR;0,32;wt%;TITR;0,4;wt%;TITR;;;
GROSCAMP-W-241418;;GROSSMAN-CAMP;GROSSMAN, 1991;38,375;-78;0,001;;;CONTINENTAL_RIFT;;;;"AAS; COL; ES; ICP; ICPMS; INAA; TITR; Unknown";WHOLE ROCK;IGNEOUS:VOLCANIC:MAFIC;DIABASE;;52,1;wt%;COL;1,17;wt%;COL;14;wt%;COL;;;;2,07;wt%;Unknown;;;;8,64;wt%;TITR;;;;;;;0,18;wt%;AAS;7,14;wt%;AAS;10,9;wt%;Unknown;;;;2,22;wt%;Unknown;0,68;wt%;AAS;0,14;wt%;COL;;;;;;;;;;0,12;wt%;TITR;1,02;wt%;TITR;;;;;;;;;;81;ppm;Unknown;45;ppm;Unknown;115;ppm;Unknown;;;;89;ppm;Unknown;1,6;ppm;INAA;0,053;ppm;AAS;0,03;ppm;INAA;;;;;;;;;;;;;;;;;;;;;;;;;;;;;;;;;;;;;;;;;;;;;;;;;;;;;;;;;;;;;;;;;;;;;;;;;;;;;;;;;;;;;;;;;;;;;;;;;;;;;;;;;;;;;;;;;;;;;;;;;11,4;ppm;INAA;22;ppm;INAA;;;;12;ppm;INAA;3,6;ppm;INAA;1;ppm;INAA;;;;0,65;ppm;INAA;;;;;;;;;;;;;2,3;ppm;INAA;0,34;ppm;INAA;0,07;ppm;TITR;0,01;ppm;INAA;0,08;ppm;INAA;;;;;;;;;;;;;;;;0,053;ppm;AAS;;;;1,6;ppm;INAA;;;;5;ppm;ES;160;ppm;Unknown;;;;;;;;;;;;;45;ppm;Unknown;251;ppm;Unknown;2;ppm;INAA;115;ppm;Unknown;;;;;;;2,6;ppm;INAA;;;;;;;;;;;;;;;;;;;;;;8,1;ppm;ICP;81;ppm;Unknown;;;;;;;;;;9,9;ppm;Unknown;11;ppm;Unknown;27;ppm;Unknown;;;;;;;0,8;ppm;ICPMS;0,03;ppm;INAA;;;;37;ppm;INAA;;;;183;ppm;Unknown;0,53;ppm;INAA;2,3;ppm;INAA;;;;;;;0,48;ppm;INAA;;;;;;;26;ppm;Unknown;89;ppm;Unknown;109;ppm;Unknown;;;;;;;;;;;;;;;;;;;;;;;;;1,6;ppm;INAA;1,6;ppm;INAA;;;;0,12;wt%;TITR;1,02;wt%;TITR;0,12;wt%;TITR;1,02;wt%;TITR;;;
GROSCAMP-W-241419;;GROSSMAN-CAMP;GROSSMAN, 1991;38,375;-78;0,001;;;CONTINENTAL_RIFT;;;;"AAS; COL; ES; ICP; ICPMS; INAA; TITR; Unknown";WHOLE ROCK;IGNEOUS:VOLCANIC:MAFIC;DIABASE;;56,7;wt%;COL;0,89;wt%;COL;17,6;wt%;COL;;;;4,08;wt%;Unknown;;;;3,01;wt%;TITR;;;;;;;0,12;wt%;AAS;2,8;wt%;AAS;3,63;wt%;Unknown;;;;5,57;wt%;Unknown;4,03;wt%;AAS;0,17;wt%;COL;;;;;;;;;;0,18;wt%;TITR;1,3;wt%;TITR;;;;;;;;;;52;ppm;Unknown;16,5;ppm;Unknown;14;ppm;Unknown;;;;95;ppm;Unknown;2,3;ppm;INAA;0,024;ppm;AAS;0,02;ppm;INAA;;;;;;;;;;;;;;;;;;;;;;;;;;;;;;;;;;;;;;;;;;;;;;;;;;;;;;;;;;;;;;;;;;;;;;;;;;;;;;;;;;;;;;;;;;;;;;;;;;;;;;;;;;;;;;;;;;;;;;;;;49;ppm;INAA;96;ppm;INAA;;;;39;ppm;INAA;9;ppm;INAA;1,67;ppm;INAA;;;;1,2;ppm;INAA;;;;;;;;;;;;;4,2;ppm;INAA;0,56;ppm;INAA;;;;0,04;ppm;INAA;0,04;ppm;INAA;;;;;;;;;;;;;;;;0,024;ppm;AAS;;;;2,3;ppm;INAA;;;;71;ppm;ES;700;ppm;Unknown;;;;;;;;;;;;;16,5;ppm;Unknown;84;ppm;Unknown;3,5;ppm;INAA;14;ppm;Unknown;;;;;;;4,8;ppm;INAA;;;;;;;;;;;;;;;;;;;;;;16;ppm;ICP;52;ppm;Unknown;;;;;;;;;;0,9;ppm;Unknown;;;;108;ppm;Unknown;;;;;;;0,6;ppm;ICPMS;0,02;ppm;INAA;0,25;ppm;INAA;17;ppm;INAA;;;;380;ppm;Unknown;1,38;ppm;INAA;12,8;ppm;INAA;;;;;;;1,8;ppm;INAA;;;;;;;36;ppm;Unknown;95;ppm;Unknown;176;ppm;Unknown;;;;;;;;;;;;;;;;;;;;;;;;;2,3;ppm;INAA;2,3;ppm;INAA;;;;0,18;wt%;TITR;1,3;wt%;TITR;0,18;wt%;TITR;1,3;wt%;TITR;;;
GROSCAMP-W-241420;;GROSSMAN-CAMP;GROSSMAN, 1991;38,375;-78,125;0,001;;;CONTINENTAL_RIFT;;;;"AAS; COL; ES; ICP; ICPMS; INAA; TITR; Unknown";WHOLE ROCK;IGNEOUS:VOLCANIC:MAFIC;DIABASE;;52,5;wt%;COL;0,94;wt%;COL;13,5;wt%;COL;;;;2,32;wt%;Unknown;;;;7,97;wt%;TITR;;;;;;;0,19;wt%;AAS;9,02;wt%;AAS;10,9;wt%;Unknown;;;;1,91;wt%;Unknown;0,5;wt%;AAS;0,11;wt%;COL;;;;;;;;;;0,19;wt%;TITR;0,71;wt%;TITR;;;;;;;;;;111;ppm;Unknown;49;ppm;Unknown;94;ppm;Unknown;;;;72;ppm;Unknown;1,2;ppm;INAA;0,034;ppm;AAS;0,02;ppm;INAA;;;;;;;;;;;;;;;;;;;;;;;;;;;;;;;;;;;;;;;;;;;;;;;;;;;;;;;;;;;;;;;;;;;;;;;;;;;;;;;;;;;;;;;;;;;;;;;;;;;;;;;;;;;;;;;;;;;;;;;;;9,3;ppm;INAA;19;ppm;INAA;;;;11;ppm;INAA;2,94;ppm;INAA;0,92;ppm;INAA;;;;0,61;ppm;INAA;;;;;;;;;;;;;1,9;ppm;INAA;0,27;ppm;INAA;0,02;ppm;TITR;0,01;ppm;INAA;;;;;;;;;;;;;;;;;;;0,034;ppm;AAS;;;;1,2;ppm;INAA;;;;3;ppm;ES;153;ppm;Unknown;;;;;;;;;;;;;49;ppm;Unknown;520;ppm;Unknown;0,98;ppm;INAA;94;ppm;Unknown;;;;;;;2,2;ppm;INAA;;;;0,5;ppm;ICPMS;;;;;;;;;;;;;;;;6,1;ppm;ICP;111;ppm;Unknown;;;;;;;;;;6,7;ppm;Unknown;16;ppm;Unknown;25;ppm;Unknown;;;;0,7;ppm;Unknown;0,7;ppm;ICPMS;0,02;ppm;INAA;;;;38;ppm;INAA;;;;169;ppm;Unknown;0,49;ppm;INAA;1,8;ppm;INAA;;;;;;;0,36;ppm;INAA;;;;;;;22;ppm;Unknown;72;ppm;Unknown;83;ppm;Unknown;;;;;;;;;;;;;;;;;;;;;;;;;1,2;ppm;INAA;1,2;ppm;INAA;;;;0,19;wt%;TITR;0,71;wt%;TITR;0,19;wt%;TITR;0,71;wt%;TITR;;;