SAMPLE ID;IGSN;EXPEDITION ID;REFERENCES;LATITUDE;LONGITUDE;LOC PREC;MIN ELEVATION;MAX ELEVATION;TECTONIC SETTING;MIN AGE;AGE;MAX AGE;METHOD;ANALYZED MATERIAL;ROCK TYPE;ROCK NAME;MINERAL;SIO2;SIO2 Units;SIO2 Method;TIO2;TIO2 Units;TIO2 Method;AL2O3;AL2O3 Units;AL2O3 Method;CR2O3;CR2O3 Units;CR2O3 Method;FE2O3;FE2O3 Units;FE2O3 Method;FE2O3T;FE2O3T Units;FE2O3T Method;FEO;FEO Units;FEO Method;FEOT;FEOT Units;FEOT Method;NIO;NIO Units;NIO Method;MNO;MNO Units;MNO Method;MGO;MGO Units;MGO Method;CAO;CAO Units;CAO Method;SRO;SRO Units;SRO Method;NA2O;NA2O Units;NA2O Method;K2O;K2O Units;K2O Method;P2O5;P2O5 Units;P2O5 Method;BAO;BAO Units;BAO Method;LOI;LOI Units;LOI Method;H2O;H2O Units;H2O Method;H2O_M;H2O_M Units;H2O_M Method;H2O_P;H2O_P Units;H2O_P Method;SO3;SO3 Units;SO3 Method;COO;COO Units;COO Method;MN;MN Units;MN Method;NI;NI Units;NI Method;CO;CO Units;CO Method;CU;CU Units;CU Method;CD;CD Units;CD Method;ZN;ZN Units;ZN Method;AS;AS Units;AS Method;AG;AG Units;AG Method;S;S Units;S Method;ZRO2;ZRO2 Units;ZRO2 Method;AL;AL Units;AL Method;CA;CA Units;CA Method;SR87_SR86;SR87_SR86 Units;SR87_SR86 Method;SR87_SR86_INI;SR87_SR86_INI Units;SR87_SR86_INI Method;RB87_SR86;RB87_SR86 Units;RB87_SR86 Method;ND143_ND144;ND143_ND144 Units;ND143_ND144 Method;ND143_ND144_INI;ND143_ND144_INI Units;ND143_ND144_INI Method;SM147_ND144;SM147_ND144 Units;SM147_ND144 Method;E_ND;E_ND Units;E_ND Method;E_ND_INI;E_ND_INI Units;E_ND_INI Method;PB204_PB206;PB204_PB206 Units;PB204_PB206 Method;PB206_PB204;PB206_PB204 Units;PB206_PB204 Method;PB206_PB204_INI;PB206_PB204_INI Units;PB206_PB204_INI Method;PB207_PB204;PB207_PB204 Units;PB207_PB204 Method;PB207_PB204_INI;PB207_PB204_INI Units;PB207_PB204_INI Method;PB207_PB206;PB207_PB206 Units;PB207_PB206 Method;PB208_PB204;PB208_PB204 Units;PB208_PB204 Method;PB208_PB204_INI;PB208_PB204_INI Units;PB208_PB204_INI Method;PB208_PB206;PB208_PB206 Units;PB208_PB206 Method;HF176_HF177;HF176_HF177 Units;HF176_HF177 Method;RE187_OS188;RE187_OS188 Units;RE187_OS188 Method;OS187_OS188;OS187_OS188 Units;OS187_OS188 Method;OS187_OS188_INI;OS187_OS188_INI Units;OS187_OS188_INI Method;G_OS;G_OS Units;G_OS Method;G_OS_INI;G_OS_INI Units;G_OS_INI Method;ND143_ND144_INI;ND143_ND144_INI Units;ND143_ND144_INI Method;PB206_PB204_INI;PB206_PB204_INI Units;PB206_PB204_INI Method;PB207_PB204_INI;PB207_PB204_INI Units;PB207_PB204_INI Method;PB208_PB204_INI;PB208_PB204_INI Units;PB208_PB204_INI Method;SR87_SR86_INI;SR87_SR86_INI Units;SR87_SR86_INI Method;HE;HE Units;HE Method;HE3;HE3 Units;HE3 Method;HE3_HE4_R_RA;HE3_HE4_R_RA Units;HE3_HE4_R_RA Method;AR36;AR36 Units;AR36 Method;AR40;AR40 Units;AR40 Method;AR40_AR36;AR40_AR36 Units;AR40_AR36 Method;NE20;NE20 Units;NE20 Method;NE20_NE22;NE20_NE22 Units;NE20_NE22 Method;NE21_NE22;NE21_NE22 Units;NE21_NE22 Method;LA;LA Units;LA Method;CE;CE Units;CE Method;PR;PR Units;PR Method;ND;ND Units;ND Method;SM;SM Units;SM Method;EU;EU Units;EU Method;GD;GD Units;GD Method;TB;TB Units;TB Method;DY;DY Units;DY Method;HO;HO Units;HO Method;ER;ER Units;ER Method;TM;TM Units;TM Method;YB;YB Units;YB Method;LU;LU Units;LU Method;CO2;CO2 Units;CO2 Method;F;F Units;F Method;CL;CL Units;CL Method;U238_PB204;U238_PB204 Units;U238_PB204 Method;TH230_TH232;TH230_TH232 Units;TH230_TH232 Method;RA226_ACTIVITY;RA226_ACTIVITY Units;RA226_ACTIVITY Method;PB210_RA226;PB210_RA226 Units;PB210_RA226 Method;PB210_ACTIVITY;PB210_ACTIVITY Units;PB210_ACTIVITY Method;AG;AG Units;AG Method;AL;AL Units;AL Method;AS;AS Units;AS Method;AU;AU Units;AU Method;B;B Units;B Method;BA;BA Units;BA Method;BE;BE Units;BE Method;BI;BI Units;BI Method;CA;CA Units;CA Method;CD;CD Units;CD Method;CO;CO Units;CO Method;CR;CR Units;CR Method;CS;CS Units;CS Method;CU;CU Units;CU Method;GA;GA Units;GA Method;GER;GER Units;GER Method;HF;HF Units;HF Method;INDIUM;INDIUM Units;INDIUM Method;IR;IR Units;IR Method;K;K Units;K Method;LI;LI Units;LI Method;MN;MN Units;MN Method;MO;MO Units;MO Method;NA;NA Units;NA Method;NB;NB Units;NB Method;NI;NI Units;NI Method;OS;OS Units;OS Method;P;P Units;P Method;PB;PB Units;PB Method;PD;PD Units;PD Method;PT;PT Units;PT Method;RB;RB Units;RB Method;RE;RE Units;RE Method;RH;RH Units;RH Method;RU;RU Units;RU Method;S;S Units;S Method;SB;SB Units;SB Method;SC;SC Units;SC Method;SN;SN Units;SN Method;SR;SR Units;SR Method;TA;TA Units;TA Method;TH;TH Units;TH Method;TI;TI Units;TI Method;TL;TL Units;TL Method;U;U Units;U Method;V;V Units;V Method;W;W Units;W Method;Y;Y Units;Y Method;ZN;ZN Units;ZN Method;ZR;ZR Units;ZR Method;DELTA_O18;DELTA_O18 Units;DELTA_O18 Method;DELTA_C13;DELTA_C13 Units;DELTA_C13 Method;DELTA_MO98;DELTA_MO98 Units;DELTA_MO98 Method;DELTA_ZN66;DELTA_ZN66 Units;DELTA_ZN66 Method;DELTA_ZN68;DELTA_ZN68 Units;DELTA_ZN68 Method;OS188;OS188 Units;OS188 Method;FE3P_FET;FE3P_FET Units;FE3P_FET Method;TI;TI Units;TI Method;AS;AS Units;AS Method;AS;AS Units;AS Method;GER;GER Units;GER Method;H2O_M;H2O_M Units;H2O_M Method;H2O_P;H2O_P Units;H2O_P Method;H2O_M;H2O_M Units;H2O_M Method;H2O_P;H2O_P Units;H2O_P Method;INDIUM;INDIUM Units;INDIUM Method
GROSCAMP-W-243029;;GROSSMAN-CAMP;GROSSMAN, 1991;36,0667;-78,8931;0,001;;;CONTINENTAL_RIFT;;;;"AAS; COL; ES; ICP; INAA; TITR; Unknown";WHOLE ROCK;IGNEOUS:VOLCANIC:MAFIC;DIABASE;;46,3;wt%;COL;0,46;wt%;COL;17,2;wt%;COL;;;;1,85;wt%;Unknown;;;;8,2;wt%;TITR;;;;;;;0,15;wt%;AAS;12;wt%;AAS;11;wt%;Unknown;;;;1,85;wt%;Unknown;0,2;wt%;AAS;0,07;wt%;COL;;;;;;;;;;0,92;wt%;TITR;0,8;wt%;TITR;;;;;;;;;;340;ppm;Unknown;73;ppm;Unknown;90;ppm;Unknown;;;;65;ppm;Unknown;;;;;;;0,04;ppm;INAA;;;;;;;;;;;;;;;;;;;;;;;;;;;;;;;;;;;;;;;;;;;;;;;;;;;;;;;;;;;;;;;;;;;;;;;;;;;;;;;;;;;;;;;;;;;;;;;;;;;;;;;;;;;;;;;;;;;;;;;;;3,4;ppm;INAA;8,2;ppm;INAA;;;;4,8;ppm;INAA;1,35;ppm;INAA;0,54;ppm;INAA;;;;0,34;ppm;INAA;;;;;;;;;;;;;1,9;ppm;INAA;0,28;ppm;INAA;0,08;ppm;TITR;0,01;ppm;INAA;0,01;ppm;INAA;;;;;;;;;;;;;;;;;;;;;;;;;8,3;ppm;INAA;12,1;ppm;ES;95;ppm;Unknown;;;;;;;;;;;;;73;ppm;Unknown;490;ppm;Unknown;;;;90;ppm;Unknown;;;;;;;0,9;ppm;INAA;;;;;;;;;;;;;;;;;;;;;;1,7;ppm;ICP;340;ppm;Unknown;;;;;;;;;;4,8;ppm;Unknown;14;ppm;Unknown;5;ppm;Unknown;;;;;;;;;;0,04;ppm;INAA;0,16;ppm;INAA;31;ppm;INAA;;;;138;ppm;Unknown;0,25;ppm;INAA;0,35;ppm;INAA;;;;;;;;;;;;;;;;21;ppm;Unknown;65;ppm;Unknown;47;ppm;Unknown;;;;;;;;;;;;;;;;;;;;;;;;;;;;;;;;;;0,92;wt%;TITR;0,8;wt%;TITR;0,92;wt%;TITR;0,8;wt%;TITR;;;
GROSCAMP-W-246940;;GROSSMAN-CAMP;GROSSMAN, 1991;38,526;-78,014;0,001;;;CONTINENTAL_RIFT;;;;"ICP; ICPMS; Unknown";WHOLE ROCK;IGNEOUS:VOLCANIC:MAFIC;DIABASE;;;;;;;;;;;;;;;;;;;;;;;;;;;;;;;;;;;;;;;;;;;;;;;;;;;;;;;;;;;;;;;;;;;;;;;;;;20;ppm;Unknown;42;ppm;Unknown;130;ppm;Unknown;;;;;;;;;;;;;;;;;;;;;;;;;;;;;;;;;;;;;;;;;;;;;;;;;;;;;;;;;;;;;;;;;;;;;;;;;;;;;;;;;;;;;;;;;;;;;;;;;;;;;;;;;;;;;;;;;;;;;;;;;;;;;;;;;;;;;;;;;;;;;;;;;;;;;;;;;;;;;;;;;;;;;;;;;;;;;;;;;;;;;;;;;;;;;;;;;;;;;;;;;;;;;;;;;;;;;;;;;;;;;;;;;;;;;;;;42;ppm;Unknown;;;;;;;130;ppm;Unknown;;;;;;;;;;;;;;;;;;;;;;;;;;;;;;;;;;20;ppm;Unknown;;;;;;;;;;29;ppm;Unknown;6,7;ppm;Unknown;;;;;;;;;;0,8;ppm;ICPMS;;;;;;;;;;;;;;;;;;;;;;;;;;;;;;;410;ppm;ICP;;;;;;;;;;;;;;;;;;;;;;;;;;;;;;;;;;;;;;;;;;;;;;;;;;;;;;;;;;;;
GROSCAMP-W-243030;;GROSSMAN-CAMP;GROSSMAN, 1991;36,0667;-78,8931;0,001;;;CONTINENTAL_RIFT;;;;"AAS; COL; ES; ICP; INAA; TITR; Unknown";WHOLE ROCK;IGNEOUS:VOLCANIC:MAFIC;DIABASE;;46,5;wt%;COL;0,45;wt%;COL;17,2;wt%;COL;;;;1,36;wt%;Unknown;;;;9;wt%;TITR;;;;;;;0,16;wt%;AAS;12,2;wt%;AAS;11,1;wt%;Unknown;;;;1,79;wt%;Unknown;0,19;wt%;AAS;0,07;wt%;COL;;;;;;;;;;0,63;wt%;TITR;0,74;wt%;TITR;;;;;;;;;;350;ppm;Unknown;72;ppm;Unknown;102;ppm;Unknown;;;;58;ppm;Unknown;;;;;;;0,03;ppm;INAA;;;;;;;;;;;;;;;;;;;;;;;;;;;;;;;;;;;;;;;;;;;;;;;;;;;;;;;;;;;;;;;;;;;;;;;;;;;;;;;;;;;;;;;;;;;;;;;;;;;;;;;;;;;;;;;;;;;;;;;;;3,4;ppm;INAA;8,1;ppm;INAA;;;;4,4;ppm;INAA;1,33;ppm;INAA;0,51;ppm;INAA;;;;0,4;ppm;INAA;;;;;;;;;;;;;1,9;ppm;INAA;0,26;ppm;INAA;0,05;ppm;TITR;0,01;ppm;INAA;0,01;ppm;INAA;;;;;;;;;;;;;;;;;;;;;;;;;;;;5,1;ppm;ES;99;ppm;Unknown;;;;;;;;;;;;;72;ppm;Unknown;500;ppm;Unknown;;;;102;ppm;Unknown;;;;;;;1;ppm;INAA;;;;;;;;;;;;;;;;;;;;;;1,4;ppm;ICP;350;ppm;Unknown;;;;;;;;;;5,3;ppm;Unknown;20;ppm;Unknown;4;ppm;Unknown;;;;;;;;;;0,03;ppm;INAA;;;;33;ppm;INAA;;;;145;ppm;Unknown;0,19;ppm;INAA;0,27;ppm;INAA;;;;;;;;;;;;;;;;26;ppm;Unknown;58;ppm;Unknown;43;ppm;Unknown;;;;;;;;;;;;;;;;;;;;;;;;;;;;;;;;;;0,63;wt%;TITR;0,74;wt%;TITR;0,63;wt%;TITR;0,74;wt%;TITR;;;
GROSCAMP-W-243031;;GROSSMAN-CAMP;GROSSMAN, 1991;36,0667;-78,8931;0,001;;;CONTINENTAL_RIFT;;;;"AAS; COL; ES; ICP; INAA; TITR; Unknown";WHOLE ROCK;IGNEOUS:VOLCANIC:MAFIC;DIABASE;;46,6;wt%;COL;0,46;wt%;COL;17,7;wt%;COL;;;;0,7;wt%;Unknown;;;;9,3;wt%;TITR;;;;;;;0,15;wt%;AAS;11,4;wt%;AAS;11,2;wt%;Unknown;;;;1,93;wt%;Unknown;0,2;wt%;AAS;0,07;wt%;COL;;;;;;;;;;0,68;wt%;TITR;0,46;wt%;TITR;;;;;;;;;;310;ppm;Unknown;70;ppm;Unknown;93;ppm;Unknown;;;;57;ppm;Unknown;;;;;;;0,07;ppm;INAA;;;;;;;;;;;;;;;;;;;;;;;;;;;;;;;;;;;;;;;;;;;;;;;;;;;;;;;;;;;;;;;;;;;;;;;;;;;;;;;;;;;;;;;;;;;;;;;;;;;;;;;;;;;;;;;;;;;;;;;;;3,6;ppm;INAA;8,8;ppm;INAA;;;;5;ppm;INAA;1,4;ppm;INAA;0,55;ppm;INAA;;;;0,41;ppm;INAA;;;;;;;;;;;;;2;ppm;INAA;0,29;ppm;INAA;0,05;ppm;TITR;0,01;ppm;INAA;0;ppm;INAA;;;;;;;;;;;;;;;;;;;;;;;;;5;ppm;INAA;1;ppm;ES;109;ppm;Unknown;;;;;;;;;;;;;70;ppm;Unknown;420;ppm;Unknown;;;;93;ppm;Unknown;;;;;;;0,93;ppm;INAA;;;;;;;;;;;;;;;;;;;;;;1,6;ppm;ICP;310;ppm;Unknown;;;;;;;;;;6;ppm;Unknown;20;ppm;Unknown;7;ppm;Unknown;;;;;;;;;;0,07;ppm;INAA;;;;32;ppm;INAA;;;;143;ppm;Unknown;0,28;ppm;INAA;;;;;;;;;;;;;;;;;;;22;ppm;Unknown;57;ppm;Unknown;49;ppm;Unknown;;;;;;;;;;;;;;;;;;;;;;;;;;;;;;;;;;0,68;wt%;TITR;0,46;wt%;TITR;0,68;wt%;TITR;0,46;wt%;TITR;;;
GROSCAMP-W-243032;;GROSSMAN-CAMP;GROSSMAN, 1991;36,0667;-78,8931;0,001;;;CONTINENTAL_RIFT;;;;"AAS; COL; ES; ICP; INAA; TITR; Unknown";WHOLE ROCK;IGNEOUS:VOLCANIC:MAFIC;DIABASE;;46,6;wt%;COL;0,46;wt%;COL;17,1;wt%;COL;;;;1,81;wt%;Unknown;;;;8,6;wt%;TITR;;;;;;;0,16;wt%;AAS;11,9;wt%;AAS;11,2;wt%;Unknown;;;;1,91;wt%;Unknown;0,2;wt%;AAS;0,08;wt%;COL;;;;;;;;;;0,74;wt%;TITR;0,33;wt%;TITR;;;;;;;;;;330;ppm;Unknown;75;ppm;Unknown;97;ppm;Unknown;;;;55;ppm;Unknown;;;;;;;0,07;ppm;INAA;;;;;;;;;;;;;;;;;;;;;;;;;;;;;;;;;;;;;;;;;;;;;;;;;;;;;;;;;;;;;;;;;;;;;;;;;;;;;;;;;;;;;;;;;;;;;;;;;;;;;;;;;;;;;;;;;;;;;;;;;3,6;ppm;INAA;8,4;ppm;INAA;;;;4,9;ppm;INAA;1,42;ppm;INAA;0,57;ppm;INAA;;;;0,42;ppm;INAA;;;;;;;;;;;;;2,08;ppm;INAA;0,289;ppm;INAA;0,07;ppm;TITR;0,01;ppm;INAA;0,01;ppm;INAA;;;;;;;;;;;;;;;;;;;;;;;;;6,4;ppm;INAA;4;ppm;ES;99;ppm;Unknown;;;;;;;;;;;;;75;ppm;Unknown;500;ppm;Unknown;0,34;ppm;INAA;97;ppm;Unknown;;;;;;;1;ppm;INAA;;;;;;;;;;;;;;;;;;;;;;1,7;ppm;ICP;330;ppm;Unknown;;;;;;;;;;7,7;ppm;Unknown;24;ppm;Unknown;3;ppm;Unknown;;;;;;;;;;0,07;ppm;INAA;;;;35;ppm;INAA;;;;141;ppm;Unknown;0,31;ppm;INAA;0,35;ppm;INAA;;;;;;;;;;;;;;;;21;ppm;Unknown;55;ppm;Unknown;46;ppm;Unknown;;;;;;;;;;;;;;;;;;;;;;;;;;;;;;;;;;0,74;wt%;TITR;0,33;wt%;TITR;0,74;wt%;TITR;0,33;wt%;TITR;;;
GROSCAMP-W-243033;;GROSSMAN-CAMP;GROSSMAN, 1991;36,0667;-78,8931;0,001;;;CONTINENTAL_RIFT;;;;"AAS; COL; ES; ICP; INAA; TITR; Unknown";WHOLE ROCK;IGNEOUS:VOLCANIC:MAFIC;DIABASE;;46,9;wt%;COL;0,52;wt%;COL;17,6;wt%;COL;;;;1,85;wt%;Unknown;;;;8,1;wt%;TITR;;;;;;;0,15;wt%;AAS;10,5;wt%;AAS;11,6;wt%;Unknown;;;;1,97;wt%;Unknown;0,2;wt%;AAS;0,08;wt%;COL;;;;;;;;;;0,72;wt%;TITR;0,96;wt%;TITR;;;;;;;;;;280;ppm;Unknown;68;ppm;Unknown;98;ppm;Unknown;;;;63;ppm;Unknown;;;;;;;0,07;ppm;INAA;;;;;;;;;;;;;;;;;;;;;;;;;;;;;;;;;;;;;;;;;;;;;;;;;;;;;;;;;;;;;;;;;;;;;;;;;;;;;;;;;;;;;;;;;;;;;;;;;;;;;;;;;;;;;;;;;;;;;;;;;4;ppm;INAA;9,1;ppm;INAA;;;;5,5;ppm;INAA;1,57;ppm;INAA;0,61;ppm;INAA;;;;0,51;ppm;INAA;;;;;;;;;;;;;2,3;ppm;INAA;0,32;ppm;INAA;0,06;ppm;TITR;0,01;ppm;INAA;0;ppm;INAA;;;;;;;;;;;;;;;;;;;;;;;;;;;;13,5;ppm;ES;118;ppm;Unknown;;;;;;;;;;;;;68;ppm;Unknown;420;ppm;Unknown;;;;98;ppm;Unknown;;;;;;;1,1;ppm;INAA;;;;;;;;;;;;;;;;;;;;;;2;ppm;ICP;280;ppm;Unknown;;;;;;;;;;3,7;ppm;Unknown;55;ppm;Unknown;7;ppm;Unknown;;;;;;;;;;0,07;ppm;INAA;;;;36;ppm;INAA;;;;161;ppm;Unknown;0,32;ppm;INAA;0,35;ppm;INAA;;;;;;;;;;;;;;;;25;ppm;Unknown;63;ppm;Unknown;48;ppm;Unknown;;;;;;;;;;;;;;;;;;;;;;;;;;;;;;;;;;0,72;wt%;TITR;0,96;wt%;TITR;0,72;wt%;TITR;0,96;wt%;TITR;;;
GROSCAMP-W-243034;;GROSSMAN-CAMP;GROSSMAN, 1991;36,0667;-78,8931;0,001;;;CONTINENTAL_RIFT;;;;"AAS; COL; ES; ICP; INAA; TITR; Unknown";WHOLE ROCK;IGNEOUS:VOLCANIC:MAFIC;DIABASE;;47,1;wt%;COL;0,55;wt%;COL;17,7;wt%;COL;;;;1,43;wt%;Unknown;;;;8,8;wt%;TITR;;;;;;;0,16;wt%;AAS;10,6;wt%;AAS;11,3;wt%;Unknown;;;;2,01;wt%;Unknown;0,22;wt%;AAS;0,09;wt%;COL;;;;;;;;;;0,46;wt%;TITR;0,95;wt%;TITR;;;;;;;;;;280;ppm;Unknown;66;ppm;Unknown;101;ppm;Unknown;;;;56;ppm;Unknown;;;;;;;0,06;ppm;INAA;;;;;;;;;;;;;;;;;;;;;;;;;;;;;;;;;;;;;;;;;;;;;;;;;;;;;;;;;;;;;;;;;;;;;;;;;;;;;;;;;;;;;;;;;;;;;;;;;;;;;;;;;;;;;;;;;;;;;;;;;4,1;ppm;INAA;8,8;ppm;INAA;;;;4,9;ppm;INAA;1,63;ppm;INAA;0,63;ppm;INAA;;;;0,45;ppm;INAA;;;;;;;;;;;;;2,3;ppm;INAA;0,32;ppm;INAA;0,06;ppm;TITR;0,01;ppm;INAA;0;ppm;INAA;;;;;;;;;;;;;;;;;;;;;;;;;;;;1;ppm;ES;123;ppm;Unknown;;;;;;;;;;;;;66;ppm;Unknown;350;ppm;Unknown;;;;101;ppm;Unknown;;;;;;;1,1;ppm;INAA;;;;;;;;;;;;;;;;;;;;;;1,8;ppm;ICP;280;ppm;Unknown;;;;;;;;;;5;ppm;Unknown;13;ppm;Unknown;4;ppm;Unknown;;;;;;;;;;0,06;ppm;INAA;;;;33;ppm;INAA;;;;151;ppm;Unknown;0,3;ppm;INAA;0,41;ppm;INAA;;;;;;;;;;;;;;;;24;ppm;Unknown;56;ppm;Unknown;52;ppm;Unknown;;;;;;;;;;;;;;;;;;;;;;;;;;;;;;;;;;0,46;wt%;TITR;0,95;wt%;TITR;0,46;wt%;TITR;0,95;wt%;TITR;;;
GROSCAMP-W-243035;;GROSSMAN-CAMP;GROSSMAN, 1991;36,0667;-78,8931;0,001;;;CONTINENTAL_RIFT;;;;"AAS; COL; ES; IGN; INAA; TITR; Unknown";WHOLE ROCK;IGNEOUS:VOLCANIC:MAFIC;DIABASE;;46,9;wt%;COL;0,55;wt%;COL;17,1;wt%;COL;;;;;;;11,48;wt%;Unknown;;;;;;;;;;0,16;wt%;AAS;11,3;wt%;AAS;11;wt%;Unknown;;;;1,94;wt%;Unknown;0,22;wt%;AAS;0,09;wt%;COL;;;;0,53;wt%;IGN;;;;;;;;;;;;;;;;;;;300;ppm;Unknown;76;ppm;Unknown;109;ppm;Unknown;;;;76;ppm;Unknown;;;;;;;0,1;ppm;INAA;;;;;;;;;;;;;;;;;;;;;;;;;;;;;;;;;;;;;;;;;;;;;;;;;;;;;;;;;;;;;;;;;;;;;;;;;;;;;;;;;;;;;;;;;;;;;;;;;;;;;;;;;;;;;;;;;;;;;;;;;4;ppm;INAA;9,3;ppm;INAA;;;;5,2;ppm;INAA;1,63;ppm;INAA;0,63;ppm;INAA;;;;0,5;ppm;INAA;;;;;;;;;;;;;2,2;ppm;INAA;0,33;ppm;INAA;0,05;ppm;TITR;0,01;ppm;INAA;0;ppm;INAA;;;;;;;;;;;;;;;;;;;;;;;;;;;;12,4;ppm;ES;98;ppm;Unknown;;;;;;;;;;;;;76;ppm;Unknown;390;ppm;Unknown;;;;109;ppm;Unknown;;;;;;;1,2;ppm;INAA;;;;;;;;;;;;;;;;;;;;;;;;;300;ppm;Unknown;;;;;;;;;;4,1;ppm;Unknown;8,7;ppm;Unknown;6;ppm;Unknown;;;;;;;;;;0,1;ppm;INAA;;;;34;ppm;INAA;;;;142;ppm;Unknown;0,41;ppm;INAA;0,33;ppm;INAA;;;;;;;;;;;;;;;;26;ppm;Unknown;76;ppm;Unknown;51;ppm;Unknown;;;;;;;;;;;;;;;;;;;;;;;;;;;;;;;;;;;;;;;;;;;;;;;;
GROSCAMP-W-243036;;GROSSMAN-CAMP;GROSSMAN, 1991;36,0667;-78,8931;0,001;;;CONTINENTAL_RIFT;;;;"AAS; COL; ES; ICP; INAA; TITR; Unknown";WHOLE ROCK;IGNEOUS:VOLCANIC:MAFIC;DIABASE;;47,3;wt%;COL;0,58;wt%;COL;17,6;wt%;COL;;;;1,14;wt%;Unknown;;;;9;wt%;TITR;;;;;;;0,16;wt%;AAS;10,5;wt%;AAS;11,2;wt%;Unknown;;;;2,04;wt%;Unknown;0,25;wt%;AAS;0,09;wt%;COL;;;;;;;;;;0,59;wt%;TITR;0,75;wt%;TITR;;;;;;;;;;270;ppm;Unknown;66;ppm;Unknown;104;ppm;Unknown;;;;59;ppm;Unknown;;;;;;;0,1;ppm;INAA;;;;;;;;;;;;;;;;;;;;;;;;;;;;;;;;;;;;;;;;;;;;;;;;;;;;;;;;;;;;;;;;;;;;;;;;;;;;;;;;;;;;;;;;;;;;;;;;;;;;;;;;;;;;;;;;;;;;;;;;;4,7;ppm;INAA;10;ppm;INAA;;;;5,9;ppm;INAA;1,75;ppm;INAA;0,65;ppm;INAA;;;;0,45;ppm;INAA;;;;;;;;;;;;;2,4;ppm;INAA;0,35;ppm;INAA;0,06;ppm;TITR;0,01;ppm;INAA;0,01;ppm;INAA;;;;;;;;;;;;;;;;;;;;;;;;;;;;36;ppm;ES;121;ppm;Unknown;;;;;;;;;;;;;66;ppm;Unknown;360;ppm;Unknown;;;;104;ppm;Unknown;;;;;;;1,3;ppm;INAA;;;;;;;;;;;;;;;;;;;;;;1,9;ppm;ICP;270;ppm;Unknown;;;;;;;;;;4,5;ppm;Unknown;13;ppm;Unknown;6;ppm;Unknown;;;;;;;;;;0,1;ppm;INAA;;;;33;ppm;INAA;;;;147;ppm;Unknown;0,27;ppm;INAA;0,42;ppm;INAA;;;;;;;;;;;;;;;;27;ppm;Unknown;59;ppm;Unknown;55;ppm;Unknown;;;;;;;;;;;;;;;;;;;;;;;;;;;;;;;;;;0,59;wt%;TITR;0,75;wt%;TITR;0,59;wt%;TITR;0,75;wt%;TITR;;;
GROSCAMP-W-243037;;GROSSMAN-CAMP;GROSSMAN, 1991;36,0667;-78,8931;0,001;;;CONTINENTAL_RIFT;;;;"AAS; COL; ES; ICP; INAA; TITR; Unknown";WHOLE ROCK;IGNEOUS:VOLCANIC:MAFIC;DIABASE;;47,2;wt%;COL;0,54;wt%;COL;17,2;wt%;COL;;;;2,37;wt%;Unknown;;;;7,9;wt%;TITR;;;;;;;0,16;wt%;AAS;10,6;wt%;AAS;11,6;wt%;Unknown;;;;1,98;wt%;Unknown;0,24;wt%;AAS;0,07;wt%;COL;;;;;;;;;;0,72;wt%;TITR;0,56;wt%;TITR;;;;;;;;;;270;ppm;Unknown;67;ppm;Unknown;105;ppm;Unknown;;;;67;ppm;Unknown;;;;;;;0,1;ppm;INAA;;;;;;;;;;;;;;;;;;;;;;;;;;;;;;;;;;;;;;;;;;;;;;;;;;;;;;;;;;;;;;;;;;;;;;;;;;;;;;;;;;;;;;;;;;;;;;;;;;;;;;;;;;;;;;;;;;;;;;;;;4,1;ppm;INAA;8,7;ppm;INAA;;;;5,9;ppm;INAA;1,64;ppm;INAA;0,64;ppm;INAA;;;;0,44;ppm;INAA;;;;;;;;;;;;;2,4;ppm;INAA;0,34;ppm;INAA;0,06;ppm;TITR;0,01;ppm;INAA;0;ppm;INAA;;;;;;;;;;;;;;;;;;;;;;;;;;;;15,8;ppm;ES;112;ppm;Unknown;;;;;;;;;;;;;67;ppm;Unknown;420;ppm;Unknown;0,37;ppm;INAA;105;ppm;Unknown;;;;;;;1,1;ppm;INAA;;;;;;;;;;;;;;;;;;;;;;1,8;ppm;ICP;270;ppm;Unknown;;;;;;;;;;3,5;ppm;Unknown;9,3;ppm;Unknown;6;ppm;Unknown;;;;;;;;;;0,1;ppm;INAA;;;;37;ppm;INAA;;;;148;ppm;Unknown;0,24;ppm;INAA;0,37;ppm;INAA;;;;;;;;;;;;;;;;21;ppm;Unknown;67;ppm;Unknown;51;ppm;Unknown;;;;;;;;;;;;;;;;;;;;;;;;;;;;;;;;;;0,72;wt%;TITR;0,56;wt%;TITR;0,72;wt%;TITR;0,56;wt%;TITR;;;
GROSCAMP-W-243038;;GROSSMAN-CAMP;GROSSMAN, 1991;36,0667;-78,8931;0,001;;;CONTINENTAL_RIFT;;;;"AAS; COL; ES; ICP; IGN; INAA; TITR; Unknown";WHOLE ROCK;IGNEOUS:VOLCANIC:MAFIC;DIABASE;;47,2;wt%;COL;0,62;wt%;COL;17,3;wt%;COL;;;;;;;11,58;wt%;Unknown;;;;;;;;;;0,17;wt%;AAS;10,2;wt%;AAS;11,1;wt%;Unknown;;;;2,06;wt%;Unknown;0,28;wt%;AAS;0,09;wt%;COL;;;;0,51;wt%;IGN;;;;;;;;;;;;;;;;;;;260;ppm;Unknown;79;ppm;Unknown;114;ppm;Unknown;;;;68;ppm;Unknown;;;;;;;0,08;ppm;INAA;;;;;;;;;;;;;;;;;;;;;;;;;;;;;;;;;;;;;;;;;;;;;;;;;;;;;;;;;;;;;;;;;;;;;;;;;;;;;;;;;;;;;;;;;;;;;;;;;;;;;;;;;;;;;;;;;;;;;;;;;4,9;ppm;INAA;11;ppm;INAA;;;;5,7;ppm;INAA;1,85;ppm;INAA;0,67;ppm;INAA;;;;0,5;ppm;INAA;;;;;;;;;;;;;2,6;ppm;INAA;0,37;ppm;INAA;0,12;ppm;TITR;0,01;ppm;INAA;0,01;ppm;INAA;;;;;;;;;;;;;;;;;;;;;;;;;;;;12,1;ppm;ES;132;ppm;Unknown;;;;;;;;;;;;;79;ppm;Unknown;320;ppm;Unknown;;;;114;ppm;Unknown;;;;;;;1,3;ppm;INAA;;;;;;;;;;;;;;;;;;;;;;2,3;ppm;ICP;260;ppm;Unknown;;;;;;;;;;3,6;ppm;Unknown;8,8;ppm;Unknown;4;ppm;Unknown;;;;;;;;;;0,08;ppm;INAA;0,24;ppm;INAA;34;ppm;INAA;;;;168;ppm;Unknown;0,31;ppm;INAA;0,4;ppm;INAA;;;;;;;;;;;;;;;;26;ppm;Unknown;68;ppm;Unknown;58;ppm;Unknown;;;;;;;;;;;;;;;;;;;;;;;;;;;;;;;;;;;;;;;;;;;;;;;;
GROSCAMP-W-243039;;GROSSMAN-CAMP;GROSSMAN, 1991;36,0667;-78,8931;0,001;;;CONTINENTAL_RIFT;;;;"AAS; COL; ES; ICP; INAA; TITR; Unknown";WHOLE ROCK;IGNEOUS:VOLCANIC:MAFIC;DIABASE;;47,4;wt%;COL;0,61;wt%;COL;17;wt%;COL;;;;2,87;wt%;Unknown;;;;7,8;wt%;TITR;;;;;;;0,17;wt%;AAS;10,3;wt%;AAS;11,3;wt%;Unknown;;;;2,06;wt%;Unknown;0,27;wt%;AAS;0,08;wt%;COL;;;;;;;;;;0,56;wt%;TITR;1,1;wt%;TITR;;;;;;;;;;250;ppm;Unknown;65;ppm;Unknown;114;ppm;Unknown;;;;62;ppm;Unknown;;;;;;;0,08;ppm;INAA;;;;;;;;;;;;;;;;;;;;;;;;;;;;;;;;;;;;;;;;;;;;;;;;;;;;;;;;;;;;;;;;;;;;;;;;;;;;;;;;;;;;;;;;;;;;;;;;;;;;;;;;;;;;;;;;;;;;;;;;;4,8;ppm;INAA;11;ppm;INAA;;;;5,8;ppm;INAA;1,86;ppm;INAA;0,69;ppm;INAA;;;;0,58;ppm;INAA;;;;;;;;;;;;;2,6;ppm;INAA;0,37;ppm;INAA;0,07;ppm;TITR;0,01;ppm;INAA;0;ppm;INAA;;;;;;;;;;;;;;;;;;;;;;;;;;;;22;ppm;ES;140;ppm;Unknown;;;;;;;;;;;;;65;ppm;Unknown;390;ppm;Unknown;0,5;ppm;INAA;114;ppm;Unknown;;;;;;;1,2;ppm;INAA;;;;;;;;;;;;;;;;;;;;;;2;ppm;ICP;250;ppm;Unknown;;;;;;;;;;3,8;ppm;Unknown;10;ppm;Unknown;7;ppm;Unknown;;;;;;;;;;0,08;ppm;INAA;;;;37;ppm;INAA;;;;170;ppm;Unknown;0,29;ppm;INAA;0,34;ppm;INAA;;;;;;;;;;;;;;;;31;ppm;Unknown;62;ppm;Unknown;60;ppm;Unknown;;;;;;;;;;;;;;;;;;;;;;;;;;;;;;;;;;0,56;wt%;TITR;1,1;wt%;TITR;0,56;wt%;TITR;1,1;wt%;TITR;;;