SAMPLE ID;IGSN;EXPEDITION ID;REFERENCES;LATITUDE;LONGITUDE;LOC PREC;MIN ELEVATION;MAX ELEVATION;TECTONIC SETTING;MIN AGE;AGE;MAX AGE;METHOD;ANALYZED MATERIAL;ROCK TYPE;ROCK NAME;MINERAL;SIO2;SIO2 Units;SIO2 Method;TIO2;TIO2 Units;TIO2 Method;AL2O3;AL2O3 Units;AL2O3 Method;CR2O3;CR2O3 Units;CR2O3 Method;FE2O3;FE2O3 Units;FE2O3 Method;FE2O3T;FE2O3T Units;FE2O3T Method;FEO;FEO Units;FEO Method;FEOT;FEOT Units;FEOT Method;NIO;NIO Units;NIO Method;MNO;MNO Units;MNO Method;MGO;MGO Units;MGO Method;CAO;CAO Units;CAO Method;SRO;SRO Units;SRO Method;NA2O;NA2O Units;NA2O Method;K2O;K2O Units;K2O Method;P2O5;P2O5 Units;P2O5 Method;BAO;BAO Units;BAO Method;LOI;LOI Units;LOI Method;H2O;H2O Units;H2O Method;H2O_M;H2O_M Units;H2O_M Method;H2O_P;H2O_P Units;H2O_P Method;SO3;SO3 Units;SO3 Method;COO;COO Units;COO Method;MN;MN Units;MN Method;NI;NI Units;NI Method;CO;CO Units;CO Method;CU;CU Units;CU Method;CD;CD Units;CD Method;ZN;ZN Units;ZN Method;AS;AS Units;AS Method;AG;AG Units;AG Method;S;S Units;S Method;ZRO2;ZRO2 Units;ZRO2 Method;AL;AL Units;AL Method;CA;CA Units;CA Method;SR87_SR86;SR87_SR86 Units;SR87_SR86 Method;SR87_SR86_INI;SR87_SR86_INI Units;SR87_SR86_INI Method;RB87_SR86;RB87_SR86 Units;RB87_SR86 Method;ND143_ND144;ND143_ND144 Units;ND143_ND144 Method;ND143_ND144_INI;ND143_ND144_INI Units;ND143_ND144_INI Method;SM147_ND144;SM147_ND144 Units;SM147_ND144 Method;E_ND;E_ND Units;E_ND Method;E_ND_INI;E_ND_INI Units;E_ND_INI Method;PB204_PB206;PB204_PB206 Units;PB204_PB206 Method;PB206_PB204;PB206_PB204 Units;PB206_PB204 Method;PB206_PB204_INI;PB206_PB204_INI Units;PB206_PB204_INI Method;PB207_PB204;PB207_PB204 Units;PB207_PB204 Method;PB207_PB204_INI;PB207_PB204_INI Units;PB207_PB204_INI Method;PB207_PB206;PB207_PB206 Units;PB207_PB206 Method;PB208_PB204;PB208_PB204 Units;PB208_PB204 Method;PB208_PB204_INI;PB208_PB204_INI Units;PB208_PB204_INI Method;PB208_PB206;PB208_PB206 Units;PB208_PB206 Method;HF176_HF177;HF176_HF177 Units;HF176_HF177 Method;RE187_OS188;RE187_OS188 Units;RE187_OS188 Method;OS187_OS188;OS187_OS188 Units;OS187_OS188 Method;OS187_OS188_INI;OS187_OS188_INI Units;OS187_OS188_INI Method;G_OS;G_OS Units;G_OS Method;G_OS_INI;G_OS_INI Units;G_OS_INI Method;ND143_ND144_INI;ND143_ND144_INI Units;ND143_ND144_INI Method;PB206_PB204_INI;PB206_PB204_INI Units;PB206_PB204_INI Method;PB207_PB204_INI;PB207_PB204_INI Units;PB207_PB204_INI Method;PB208_PB204_INI;PB208_PB204_INI Units;PB208_PB204_INI Method;SR87_SR86_INI;SR87_SR86_INI Units;SR87_SR86_INI Method;HE;HE Units;HE Method;HE3;HE3 Units;HE3 Method;HE3_HE4_R_RA;HE3_HE4_R_RA Units;HE3_HE4_R_RA Method;AR36;AR36 Units;AR36 Method;AR40;AR40 Units;AR40 Method;AR40_AR36;AR40_AR36 Units;AR40_AR36 Method;NE20;NE20 Units;NE20 Method;NE20_NE22;NE20_NE22 Units;NE20_NE22 Method;NE21_NE22;NE21_NE22 Units;NE21_NE22 Method;LA;LA Units;LA Method;CE;CE Units;CE Method;PR;PR Units;PR Method;ND;ND Units;ND Method;SM;SM Units;SM Method;EU;EU Units;EU Method;GD;GD Units;GD Method;TB;TB Units;TB Method;DY;DY Units;DY Method;HO;HO Units;HO Method;ER;ER Units;ER Method;TM;TM Units;TM Method;YB;YB Units;YB Method;LU;LU Units;LU Method;CO2;CO2 Units;CO2 Method;F;F Units;F Method;CL;CL Units;CL Method;U238_PB204;U238_PB204 Units;U238_PB204 Method;TH230_TH232;TH230_TH232 Units;TH230_TH232 Method;RA226_ACTIVITY;RA226_ACTIVITY Units;RA226_ACTIVITY Method;PB210_RA226;PB210_RA226 Units;PB210_RA226 Method;PB210_ACTIVITY;PB210_ACTIVITY Units;PB210_ACTIVITY Method;AG;AG Units;AG Method;AL;AL Units;AL Method;AS;AS Units;AS Method;AU;AU Units;AU Method;B;B Units;B Method;BA;BA Units;BA Method;BE;BE Units;BE Method;BI;BI Units;BI Method;CA;CA Units;CA Method;CD;CD Units;CD Method;CO;CO Units;CO Method;CR;CR Units;CR Method;CS;CS Units;CS Method;CU;CU Units;CU Method;GA;GA Units;GA Method;GER;GER Units;GER Method;HF;HF Units;HF Method;INDIUM;INDIUM Units;INDIUM Method;IR;IR Units;IR Method;K;K Units;K Method;LI;LI Units;LI Method;MN;MN Units;MN Method;MO;MO Units;MO Method;NA;NA Units;NA Method;NB;NB Units;NB Method;NI;NI Units;NI Method;OS;OS Units;OS Method;P;P Units;P Method;PB;PB Units;PB Method;PD;PD Units;PD Method;PT;PT Units;PT Method;RB;RB Units;RB Method;RE;RE Units;RE Method;RH;RH Units;RH Method;RU;RU Units;RU Method;S;S Units;S Method;SB;SB Units;SB Method;SC;SC Units;SC Method;SN;SN Units;SN Method;SR;SR Units;SR Method;TA;TA Units;TA Method;TH;TH Units;TH Method;TI;TI Units;TI Method;TL;TL Units;TL Method;U;U Units;U Method;V;V Units;V Method;W;W Units;W Method;Y;Y Units;Y Method;ZN;ZN Units;ZN Method;ZR;ZR Units;ZR Method;DELTA_O18;DELTA_O18 Units;DELTA_O18 Method;DELTA_C13;DELTA_C13 Units;DELTA_C13 Method;DELTA_MO98;DELTA_MO98 Units;DELTA_MO98 Method;DELTA_ZN66;DELTA_ZN66 Units;DELTA_ZN66 Method;DELTA_ZN68;DELTA_ZN68 Units;DELTA_ZN68 Method;OS188;OS188 Units;OS188 Method;FE3P_FET;FE3P_FET Units;FE3P_FET Method;TI;TI Units;TI Method;AS;AS Units;AS Method;AS;AS Units;AS Method;GER;GER Units;GER Method;H2O_M;H2O_M Units;H2O_M Method;H2O_P;H2O_P Units;H2O_P Method;H2O_M;H2O_M Units;H2O_M Method;H2O_P;H2O_P Units;H2O_P Method;INDIUM;INDIUM Units;INDIUM Method
GROSCAMP-W-243413;;GROSSMAN-CAMP;GROSSMAN, 1991;38,5236;-77,8375;0,001;;;CONTINENTAL_RIFT;;;;"AAS; COL; ICP; INAA; Unknown";WHOLE ROCK;IGNEOUS:VOLCANIC:MAFIC;DIABASE;;52,11;wt%;COL;0,79;wt%;COL;15,56;wt%;COL;;;;;;;11,35;wt%;Unknown;;;;;;;;;;0;wt%;AAS;7,29;wt%;AAS;10,95;wt%;Unknown;;;;2,34;wt%;Unknown;0,43;wt%;AAS;0,1;wt%;COL;;;;;;;;;;;;;;;;;;;;;;;;;57;ppm;Unknown;44;ppm;Unknown;61;ppm;Unknown;;;;74;ppm;Unknown;;;;;;;0,04;ppm;INAA;;;;;;;;;;;;;;;;;;;;;;;;;;;;;;;;;;;;;;;;;;;;;;;;;;;;;;;;;;;;;;;;;;;;;;;;;;;;;;;;;;;;;;;;;;;;;;;;;;;;;;;;;;;;;;;;;;;;;;;;;6,8;ppm;INAA;14;ppm;INAA;;;;7,8;ppm;INAA;2,42;ppm;INAA;0,77;ppm;INAA;;;;0,57;ppm;INAA;;;;;;;;;;;;;2,5;ppm;INAA;0,35;ppm;INAA;;;;0,02;ppm;INAA;0,02;ppm;INAA;;;;;;;;;;;;;;;;;;;;;;;;;;;;;;;107;ppm;Unknown;;;;;;;;;;;;;44;ppm;Unknown;198;ppm;Unknown;0,75;ppm;INAA;61;ppm;Unknown;;;;;;;1,7;ppm;INAA;;;;;;;;;;;;;;;;;;;;;;3,6;ppm;ICP;57;ppm;Unknown;;;;;;;;;;1,3;ppm;Unknown;2,3;ppm;Unknown;13;ppm;Unknown;;;;;;;;;;0,04;ppm;INAA;;;;41;ppm;INAA;;;;144;ppm;Unknown;;;;1,5;ppm;INAA;;;;;;;;;;;;;;;;25;ppm;Unknown;74;ppm;Unknown;69;ppm;Unknown;;;;;;;;;;;;;;;;;;;;;;;;;;;;;;;;;;;;;;;;;;;;;;;;
GROSCAMP-W-243414;;GROSSMAN-CAMP;GROSSMAN, 1991;38,5042;-77,85;0,001;;;CONTINENTAL_RIFT;;;;"AAS; COL; ES; ICP; INAA; Unknown";WHOLE ROCK;IGNEOUS:VOLCANIC:MAFIC;DIABASE;;51,91;wt%;COL;0,8;wt%;COL;14,81;wt%;COL;;;;;;;12,07;wt%;Unknown;;;;;;;;;;0;wt%;AAS;7,75;wt%;AAS;10,5;wt%;Unknown;;;;2,27;wt%;Unknown;0,57;wt%;AAS;0,1;wt%;COL;;;;;;;;;;;;;;;;;;;;;;;;;68;ppm;Unknown;49;ppm;Unknown;65;ppm;Unknown;;;;87;ppm;Unknown;;;;;;;0,07;ppm;INAA;;;;;;;;;;;;;;;;;;;;;;;;;;;;;;;;;;;;;;;;;;;;;;;;;;;;;;;;;;;;;;;;;;;;;;;;;;;;;;;;;;;;;;;;;;;;;;;;;;;;;;;;;;;;;;;;;;;;;;;;;7,1;ppm;INAA;15;ppm;INAA;;;;8,1;ppm;INAA;2,36;ppm;INAA;0,79;ppm;INAA;;;;0,57;ppm;INAA;;;;;;;;;;;;;2,5;ppm;INAA;0,36;ppm;INAA;;;;0,01;ppm;INAA;0,15;ppm;INAA;;;;;;;;;;;;;;;;;;;;;;;;;;;;37;ppm;ES;125;ppm;Unknown;;;;;;;;;;;;;49;ppm;Unknown;197;ppm;Unknown;1,3;ppm;INAA;65;ppm;Unknown;;;;;;;1,8;ppm;INAA;;;;;;;;;;;;;;;;;;;;;;3,6;ppm;ICP;68;ppm;Unknown;;;;;;;;;;0,8;ppm;Unknown;2,9;ppm;Unknown;15;ppm;Unknown;;;;;;;;;;0,07;ppm;INAA;;;;43;ppm;INAA;;;;149;ppm;Unknown;0,3;ppm;INAA;1,5;ppm;INAA;;;;;;;;;;;;;;;;24;ppm;Unknown;87;ppm;Unknown;68;ppm;Unknown;;;;;;;;;;;;;;;;;;;;;;;;;;;;;;;;;;;;;;;;;;;;;;;;
GROSCAMP-W-243415;;GROSSMAN-CAMP;GROSSMAN, 1991;38,5597;-77,7889;0,001;;;CONTINENTAL_RIFT;;;;"AAS; COL; ICP; INAA; Unknown";WHOLE ROCK;IGNEOUS:VOLCANIC:MAFIC;DIABASE;;51,09;wt%;COL;0,73;wt%;COL;15,44;wt%;COL;;;;;;;11,47;wt%;Unknown;;;;;;;;;;0;wt%;AAS;7,81;wt%;AAS;10,97;wt%;Unknown;;;;2,33;wt%;Unknown;0,69;wt%;AAS;0,08;wt%;COL;;;;;;;;;;;;;;;;;;;;;;;;;69;ppm;Unknown;46;ppm;Unknown;82;ppm;Unknown;;;;80;ppm;Unknown;;;;;;;0,06;ppm;INAA;;;;;;;;;;;;;;;;;;;;;;;;;;;;;;;;;;;;;;;;;;;;;;;;;;;;;;;;;;;;;;;;;;;;;;;;;;;;;;;;;;;;;;;;;;;;;;;;;;;;;;;;;;;;;;;;;;;;;;;;;5,5;ppm;INAA;11;ppm;INAA;;;;6,6;ppm;INAA;2,06;ppm;INAA;0,73;ppm;INAA;;;;0,56;ppm;INAA;;;;;;;;;;;;;2,2;ppm;INAA;0,32;ppm;INAA;;;;0,01;ppm;INAA;0,07;ppm;INAA;;;;;;;;;;;;;;;;;;;;;;;;;;;;;;;103;ppm;Unknown;;;;;;;;;;;;;46;ppm;Unknown;238;ppm;Unknown;0,66;ppm;INAA;82;ppm;Unknown;;;;;;;1,3;ppm;INAA;;;;;;;;;;;;;;;;;;;;;;2,8;ppm;ICP;69;ppm;Unknown;;;;;;;;;;1,4;ppm;Unknown;;;;25;ppm;Unknown;;;;;;;;;;0,06;ppm;INAA;;;;42;ppm;INAA;;;;179;ppm;Unknown;0,23;ppm;INAA;1,2;ppm;INAA;;;;;;;;;;;;;;;;20;ppm;Unknown;80;ppm;Unknown;63;ppm;Unknown;;;;;;;;;;;;;;;;;;;;;;;;;;;;;;;;;;;;;;;;;;;;;;;;
GROSCAMP-W-243416;;GROSSMAN-CAMP;GROSSMAN, 1991;38,5583;-77,7875;0,001;;;CONTINENTAL_RIFT;;;;"AAS; COL; ES; ICP; INAA; Unknown";WHOLE ROCK;IGNEOUS:VOLCANIC:MAFIC;DIABASE;;50,87;wt%;COL;0,65;wt%;COL;17,79;wt%;COL;;;;;;;10,05;wt%;Unknown;;;;;;;;;;0;wt%;AAS;6,53;wt%;AAS;11,59;wt%;Unknown;;;;2,07;wt%;Unknown;0,46;wt%;AAS;0,08;wt%;COL;;;;;;;;;;;;;;;;;;;;;;;;;58;ppm;Unknown;41;ppm;Unknown;54;ppm;Unknown;;;;71;ppm;Unknown;;;;;;;0,04;ppm;INAA;;;;;;;;;;;;;;;;;;;;;;;;;;;;;;;;;;;;;;;;;;;;;;;;;;;;;;;;;;;;;;;;;;;;;;;;;;;;;;;;;;;;;;;;;;;;;;;;;;;;;;;;;;;;;;;;;;;;;;;;;6,1;ppm;INAA;13;ppm;INAA;;;;6,9;ppm;INAA;1,99;ppm;INAA;0,68;ppm;INAA;;;;0,51;ppm;INAA;;;;;;;;;;;;;2,1;ppm;INAA;0,34;ppm;INAA;;;;0,01;ppm;INAA;0,05;ppm;INAA;;;;;;;;;;;;;;;;;;;;;;;;;;;;25,3;ppm;ES;86;ppm;Unknown;;;;;;;;;;;;;41;ppm;Unknown;163;ppm;Unknown;0,72;ppm;INAA;54;ppm;Unknown;;;;;;;1,4;ppm;INAA;;;;;;;;;;;;;;;;;;;;;;3;ppm;ICP;58;ppm;Unknown;;;;;;;;;;0,8;ppm;Unknown;4;ppm;Unknown;17;ppm;Unknown;;;;;;;;;;0,04;ppm;INAA;;;;35;ppm;INAA;;;;143;ppm;Unknown;0,25;ppm;INAA;1,3;ppm;INAA;;;;;;;0,32;ppm;INAA;;;;;;;24;ppm;Unknown;71;ppm;Unknown;62;ppm;Unknown;;;;;;;;;;;;;;;;;;;;;;;;;;;;;;;;;;;;;;;;;;;;;;;;
GROSCAMP-W-243417;;GROSSMAN-CAMP;GROSSMAN, 1991;36,95;-79,15;0,001;;;CONTINENTAL_RIFT;;;;"AAS; COL; ES; ICP; INAA; Unknown";WHOLE ROCK;IGNEOUS:VOLCANIC:MAFIC;DIABASE;;52,88;wt%;COL;1,09;wt%;COL;13,88;wt%;COL;;;;;;;13,44;wt%;Unknown;;;;;;;;;;0,21;wt%;AAS;5,82;wt%;AAS;9,64;wt%;Unknown;;;;2,46;wt%;Unknown;0,62;wt%;AAS;0,15;wt%;COL;;;;;;;;;;;;;;;;;;;;;;;;;45;ppm;Unknown;47;ppm;Unknown;62;ppm;Unknown;;;;87;ppm;Unknown;;;;;;;0,07;ppm;INAA;;;;;;;;;;;;;;;;;;;;;;;;;;;;;;;;;;;;;;;;;;;;;;;;;;;;;;;;;;;;;;;;;;;;;;;;;;;;;;;;;;;;;;;;;;;;;;;;;;;;;;;;;;;;;;;;;;;;;;;;;10;ppm;INAA;21;ppm;INAA;;;;13;ppm;INAA;3,2;ppm;INAA;1;ppm;INAA;;;;0,76;ppm;INAA;;;;;;;;;;;;;3,2;ppm;INAA;0,49;ppm;INAA;;;;0,01;ppm;INAA;0;ppm;INAA;;;;;;;;;;;;;;;;;;;;;;;;;;;;10,1;ppm;ES;144;ppm;Unknown;;;;;;;;;;;;;47;ppm;Unknown;72;ppm;Unknown;0,67;ppm;INAA;62;ppm;Unknown;;;;;;;2,4;ppm;INAA;;;;;;;;;;;;;;;;;;;;;;5,3;ppm;ICP;45;ppm;Unknown;;;;;;;;;;2;ppm;Unknown;3,2;ppm;Unknown;14;ppm;Unknown;;;;;;;;;;0,07;ppm;INAA;0,54;ppm;INAA;46;ppm;INAA;;;;143;ppm;Unknown;0,42;ppm;INAA;2,4;ppm;INAA;;;;;;;0,67;ppm;INAA;;;;;;;30;ppm;Unknown;87;ppm;Unknown;94;ppm;Unknown;;;;;;;;;;;;;;;;;;;;;;;;;;;;;;;;;;;;;;;;;;;;;;;;
GROSCAMP-W-243418;;GROSSMAN-CAMP;GROSSMAN, 1991;38,526;-78,014;0,001;;;CONTINENTAL_RIFT;;;;"ES; ICP; INAA; Unknown";WHOLE ROCK;IGNEOUS:VOLCANIC:MAFIC;DIABASE;;;;;;;;;;;;;;;;;9,7;wt%;Unknown;;;;;;;;;;;;;;;;11,19;wt%;Unknown;;;;1,68;wt%;Unknown;;;;;;;;;;;;;;;;;;;;;;;;;;;;;;;200;ppm;Unknown;45;ppm;Unknown;68;ppm;Unknown;;;;61;ppm;Unknown;;;;;;;0,01;ppm;INAA;;;;;;;;;;;;;;;;;;;;;;;;;;;;;;;;;;;;;;;;;;;;;;;;;;;;;;;;;;;;;;;;;;;;;;;;;;;;;;;;;;;;;;;;;;;;;;;;;;;;;;;;;;;;;;;;;;;;;;;;;6,5;ppm;INAA;15;ppm;INAA;;;;7,9;ppm;INAA;1,56;ppm;INAA;0,4;ppm;INAA;;;;0,24;ppm;INAA;;;;;;;;;;;;;1,8;ppm;INAA;0,31;ppm;INAA;;;;0,03;ppm;INAA;0,01;ppm;INAA;;;;;;;;;;;;;;;;;;;;;;;;;;;;27,3;ppm;ES;110;ppm;Unknown;;;;;;;;;;;;;45;ppm;Unknown;540;ppm;Unknown;0,95;ppm;INAA;68;ppm;Unknown;;;;;;;1,2;ppm;INAA;;;;;;;;;;;;;;;;;;;;;;2,5;ppm;ICP;200;ppm;Unknown;;;;;;;;;;12;ppm;Unknown;14;ppm;Unknown;14;ppm;Unknown;;;;;;;;;;0,01;ppm;INAA;;;;37;ppm;INAA;;;;88;ppm;Unknown;0,31;ppm;INAA;1,5;ppm;INAA;;;;;;;;;;;;;;;;16;ppm;Unknown;61;ppm;Unknown;56;ppm;Unknown;;;;;;;;;;;;;;;;;;;;;;;;;;;;;;;;;;;;;;;;;;;;;;;;
GROSCAMP-W-243419;;GROSSMAN-CAMP;GROSSMAN, 1991;38,526;-78,014;0,001;;;CONTINENTAL_RIFT;;;;"ES; ICP; INAA; Unknown";WHOLE ROCK;IGNEOUS:VOLCANIC:MAFIC;DIABASE;;;;;;;;;;;;;;;;;14,23;wt%;Unknown;;;;;;;;;;;;;;;;5,18;wt%;Unknown;;;;1,17;wt%;Unknown;;;;;;;;;;;;;;;;;;;;;;;;;;;;;;;1100;ppm;Unknown;111;ppm;Unknown;53;ppm;Unknown;;;;72;ppm;Unknown;;;;;;;0,03;ppm;INAA;;;;;;;;;;;;;;;;;;;;;;;;;;;;;;;;;;;;;;;;;;;;;;;;;;;;;;;;;;;;;;;;;;;;;;;;;;;;;;;;;;;;;;;;;;;;;;;;;;;;;;;;;;;;;;;;;;;;;;;;;2,3;ppm;INAA;8;ppm;INAA;;;;4,2;ppm;INAA;0,93;ppm;INAA;0,28;ppm;INAA;;;;0,19;ppm;INAA;;;;;;;;;;;;;1,1;ppm;INAA;0,16;ppm;INAA;;;;0,01;ppm;INAA;0,04;ppm;INAA;;;;;;;;;;;;;;;;;;;;;;;;;;;;20,9;ppm;ES;47;ppm;Unknown;;;;;;;;;;;;;111;ppm;Unknown;1740;ppm;Unknown;0,51;ppm;INAA;53;ppm;Unknown;;;;;;;0,68;ppm;INAA;;;;;;;;;;;;;;;;;;;;;;1,4;ppm;ICP;1100;ppm;Unknown;;;;;;;;;;8;ppm;Unknown;7,3;ppm;Unknown;6;ppm;Unknown;;;;;;;;;;0,03;ppm;INAA;;;;20,6;ppm;INAA;;;;65;ppm;Unknown;0,2;ppm;INAA;;;;;;;;;;;;;;;;;;;10;ppm;Unknown;72;ppm;Unknown;42;ppm;Unknown;;;;;;;;;;;;;;;;;;;;;;;;;;;;;;;;;;;;;;;;;;;;;;;;
GROSCAMP-W-243420;;GROSSMAN-CAMP;GROSSMAN, 1991;38,526;-78,014;0,001;;;CONTINENTAL_RIFT;;;;"ES; ICP; INAA; Unknown";WHOLE ROCK;IGNEOUS:VOLCANIC:MAFIC;DIABASE;;;;;;;;;;;;;;;;;10,8;wt%;Unknown;;;;;;;;;;;;;;;;10,77;wt%;Unknown;;;;1,98;wt%;Unknown;;;;;;;;;;;;;;;;;;;;;;;;;;;;;;;69;ppm;Unknown;44;ppm;Unknown;55;ppm;Unknown;;;;59;ppm;Unknown;;;;;;;0,03;ppm;INAA;;;;;;;;;;;;;;;;;;;;;;;;;;;;;;;;;;;;;;;;;;;;;;;;;;;;;;;;;;;;;;;;;;;;;;;;;;;;;;;;;;;;;;;;;;;;;;;;;;;;;;;;;;;;;;;;;;;;;;;;;5;ppm;INAA;10;ppm;INAA;;;;6,6;ppm;INAA;1,82;ppm;INAA;0,68;ppm;INAA;;;;0,43;ppm;INAA;;;;;;;;;;;;;2;ppm;INAA;0,29;ppm;INAA;;;;0,01;ppm;INAA;0,01;ppm;INAA;;;;;;;;;;;;;;;;;;;;;;;;;;;;37;ppm;ES;75;ppm;Unknown;;;;;;;;;;;;;44;ppm;Unknown;237;ppm;Unknown;0,83;ppm;INAA;55;ppm;Unknown;;;;;;;1,2;ppm;INAA;;;;;;;;;;;;;;;;;;;;;;2,6;ppm;ICP;69;ppm;Unknown;;;;;;;;;;;;;1,4;ppm;Unknown;16;ppm;Unknown;;;;;;;;;;0,03;ppm;INAA;;;;40;ppm;INAA;;;;154;ppm;Unknown;;;;1;ppm;INAA;;;;;;;0,53;ppm;INAA;;;;;;;25;ppm;Unknown;59;ppm;Unknown;58;ppm;Unknown;;;;;;;;;;;;;;;;;;;;;;;;;;;;;;;;;;;;;;;;;;;;;;;;
GROSCAMP-W-243421;;GROSSMAN-CAMP;GROSSMAN, 1991;38,526;-78,014;0,001;;;CONTINENTAL_RIFT;;;;"ES; ICP; INAA; Unknown";WHOLE ROCK;IGNEOUS:VOLCANIC:MAFIC;DIABASE;;;;;;;;;;;;;;;;;11,08;wt%;Unknown;;;;;;;;;;;;;;;;10,49;wt%;Unknown;;;;1,85;wt%;Unknown;;;;;;;;;;;;;;;;;;;;;;;;;;;;;;;300;ppm;Unknown;55;ppm;Unknown;64;ppm;Unknown;;;;70;ppm;Unknown;;;;;;;0,02;ppm;INAA;;;;;;;;;;;;;;;;;;;;;;;;;;;;;;;;;;;;;;;;;;;;;;;;;;;;;;;;;;;;;;;;;;;;;;;;;;;;;;;;;;;;;;;;;;;;;;;;;;;;;;;;;;;;;;;;;;;;;;;;;5,2;ppm;INAA;11;ppm;INAA;;;;7,8;ppm;INAA;1,51;ppm;INAA;0,42;ppm;INAA;;;;0,34;ppm;INAA;;;;;;;;;;;;;1,8;ppm;INAA;0,28;ppm;INAA;;;;0,01;ppm;INAA;0,01;ppm;INAA;;;;;;;;;;;;;;;;;;;;;;;;;;;;17,6;ppm;ES;97;ppm;Unknown;;;;;;;;;;;;;55;ppm;Unknown;840;ppm;Unknown;0,79;ppm;INAA;64;ppm;Unknown;;;;;;;0,99;ppm;INAA;;;;;;;;;;;;;;;;;;;;;;2,1;ppm;ICP;300;ppm;Unknown;;;;;;;;;;4,7;ppm;Unknown;7,6;ppm;Unknown;9;ppm;Unknown;;;;;;;;;;0,02;ppm;INAA;;;;35;ppm;INAA;;;;130;ppm;Unknown;0,16;ppm;INAA;0,83;ppm;INAA;;;;;;;;;;;;;;;;23;ppm;Unknown;70;ppm;Unknown;50;ppm;Unknown;;;;;;;;;;;;;;;;;;;;;;;;;;;;;;;;;;;;;;;;;;;;;;;;
GROSCAMP-W-243816;;GROSSMAN-CAMP;GROSSMAN, 1991;39,3764;-77,4305;0,001;;;CONTINENTAL_RIFT;;;;"AAS; COL; ES; ICP; INAA; TITR; Unknown";WHOLE ROCK;IGNEOUS:VOLCANIC:MAFIC;DIABASE;;52,1;wt%;COL;1,16;wt%;COL;14;wt%;COL;;;;2,73;wt%;Unknown;;;;8,2;wt%;TITR;;;;;;;0,18;wt%;AAS;7,41;wt%;AAS;10,8;wt%;Unknown;;;;1,94;wt%;Unknown;0,71;wt%;AAS;0,15;wt%;COL;;;;;;;;;;0,21;wt%;TITR;0,79;wt%;TITR;;;;;;;;;;88;ppm;Unknown;47;ppm;Unknown;106;ppm;Unknown;;;;67;ppm;Unknown;1,2;ppm;INAA;;;;0,04;ppm;INAA;;;;;;;;;;;;;;;;;;;;;;;;;;;;;;;;;;;;;;;;;;;;;;;;;;;;;;;;;;;;;;;;;;;;;;;;;;;;;;;;;;;;;;;;;;;;;;;;;;;;;;;;;;;;;;;;;;;;;;;;;11,2;ppm;INAA;23,5;ppm;INAA;;;;13;ppm;INAA;3,6;ppm;INAA;1,1;ppm;INAA;;;;0,65;ppm;INAA;;;;;;;;;;;;;2,27;ppm;INAA;0,35;ppm;INAA;0,28;ppm;TITR;0,03;ppm;INAA;0,01;ppm;INAA;;;;;;;;;;;;;;;;;;;;;;1,2;ppm;INAA;;;;2;ppm;ES;191;ppm;Unknown;;;;;;;;;;;;;47;ppm;Unknown;288;ppm;Unknown;3;ppm;INAA;106;ppm;Unknown;20;ppm;ICP;;;;2,61;ppm;INAA;;;;;;;;;;;;;;;;;;;;;;8,7;ppm;ICP;88;ppm;Unknown;;;;;;;;;;9;ppm;Unknown;14;ppm;Unknown;25;ppm;Unknown;;;;;;;;;;0,04;ppm;INAA;0,13;ppm;INAA;37;ppm;INAA;;;;195;ppm;Unknown;0,53;ppm;INAA;2,3;ppm;INAA;;;;;;;0,53;ppm;INAA;;;;;;;22;ppm;Unknown;67;ppm;Unknown;103;ppm;Unknown;;;;;;;;;;;;;;;;;;;;;;;;;1,2;ppm;INAA;1,2;ppm;INAA;;;;0,21;wt%;TITR;0,79;wt%;TITR;0,21;wt%;TITR;0,79;wt%;TITR;;;
GROSCAMP-W-246945;;GROSSMAN-CAMP;GROSSMAN, 1991;38,526;-78,014;0,001;;;CONTINENTAL_RIFT;;;;"ICP; Unknown";WHOLE ROCK;IGNEOUS:VOLCANIC:MAFIC;DIABASE;;;;;;;;;;;;;;;;;;;;;;;;;;;;;;;;;;;;;;;;;;;;;;;;;;;;;;;;;;;;;;;;;;;;;;;;;;10;ppm;Unknown;49;ppm;Unknown;630;ppm;Unknown;;;;;;;;;;;;;;;;;;;;;;;;;;;;;;;;;;;;;;;;;;;;;;;;;;;;;;;;;;;;;;;;;;;;;;;;;;;;;;;;;;;;;;;;;;;;;;;;;;;;;;;;;;;;;;;;;;;;;;;;;;;;;;;;;;;;;;;;;;;;;;;;;;;;;;;;;;;;;;;;;;;;;;;;;;;;;;;;;;;;;;;;;;;;;;;;;;;;;;;;;;;;;;;;;;;;;;;;;;;;;;;;;;;;;;;;49;ppm;Unknown;;;;;;;630;ppm;Unknown;;;;;;;;;;;;;;;;;;;;;;;;;;;;;;;;;;10;ppm;Unknown;;;;;;;;;;7,7;ppm;Unknown;1,4;ppm;Unknown;;;;;;;;;;;;;;;;;;;;;;;;;;;;;;;;;;;;;;;;;;;120;ppm;ICP;;;;;;;;;;;;;;;;;;;;;;;;;;;;;;;;;;;;;;;;;;;;;;;;;;;;;;;;;;;;
GROSCAMP-W-243817;;GROSSMAN-CAMP;GROSSMAN, 1991;40,23;-75,99;0,001;;;CONTINENTAL_RIFT;;;;"AAS; COL; ES; ICP; INAA; TITR; Unknown";WHOLE ROCK;IGNEOUS:VOLCANIC:FELSIC;GRANOPHYRE;;58,2;wt%;COL;1,88;wt%;COL;11,8;wt%;COL;;;;4,3;wt%;Unknown;;;;9;wt%;TITR;;;;;;;0,2;wt%;AAS;1,31;wt%;AAS;4,95;wt%;Unknown;;;;3,13;wt%;Unknown;2,33;wt%;AAS;0,57;wt%;COL;;;;;;;;;;0,42;wt%;TITR;1,1;wt%;TITR;;;;;;;;;;8;ppm;Unknown;27,7;ppm;Unknown;239;ppm;Unknown;;;;209;ppm;Unknown;6,8;ppm;INAA;;;;0,08;ppm;INAA;;;;;;;;;;;;;;;;;;;;;;;;;;;;;;;;;;;;;;;;;;;;;;;;;;;;;;;;;;;;;;;;;;;;;;;;;;;;;;;;;;;;;;;;;;;;;;;;;;;;;;;;;;;;;;;;;;;;;;;;;40;ppm;INAA;82;ppm;INAA;;;;41;ppm;INAA;11,5;ppm;INAA;2,85;ppm;INAA;;;;2;ppm;INAA;;;;;;;;;;;;;6,4;ppm;INAA;0,94;ppm;INAA;0,01;ppm;TITR;0,08;ppm;INAA;0,29;ppm;INAA;;;;;;;;;;;;;;;;;;;;;;6,8;ppm;INAA;;;;27,1;ppm;ES;530;ppm;Unknown;;;;;;;;;;;;;27,7;ppm;Unknown;5,5;ppm;Unknown;2,1;ppm;INAA;239;ppm;Unknown;25;ppm;ICP;;;;8,9;ppm;INAA;;;;;;;;;;;;;;;;;;;;;;26;ppm;ICP;8;ppm;Unknown;;;;;;;;;;1,3;ppm;Unknown;1,6;ppm;Unknown;78;ppm;Unknown;;;;;;;;;;0,08;ppm;INAA;0,68;ppm;INAA;24,7;ppm;INAA;;;;181;ppm;Unknown;1,87;ppm;INAA;7,8;ppm;INAA;;;;;;;1,8;ppm;INAA;;;;;;;65;ppm;Unknown;209;ppm;Unknown;300;ppm;Unknown;;;;;;;;;;;;;;;;;;;;;;;;;6,8;ppm;INAA;6,8;ppm;INAA;;;;0,42;wt%;TITR;1,1;wt%;TITR;0,42;wt%;TITR;1,1;wt%;TITR;;;
GROSCAMP-W-243818;;GROSSMAN-CAMP;GROSSMAN, 1991;40,23;-75,99;0,001;;;CONTINENTAL_RIFT;;;;"AAS; COL; ES; ICP; INAA; TITR; Unknown";WHOLE ROCK;IGNEOUS:VOLCANIC:MAFIC;DIABASE;;52,4;wt%;COL;1,28;wt%;COL;14,5;wt%;COL;;;;3,43;wt%;Unknown;;;;7,4;wt%;TITR;;;;;;;0,17;wt%;AAS;5,21;wt%;AAS;8,14;wt%;Unknown;;;;3,73;wt%;Unknown;1,25;wt%;AAS;0,17;wt%;COL;;;;;;;;;;0,4;wt%;TITR;2;wt%;TITR;;;;;;;;;;42;ppm;Unknown;40;ppm;Unknown;110;ppm;Unknown;;;;74;ppm;Unknown;5,4;ppm;INAA;;;;0,04;ppm;INAA;;;;;;;;;;;;;;;;;;;;;;;;;;;;;;;;;;;;;;;;;;;;;;;;;;;;;;;;;;;;;;;;;;;;;;;;;;;;;;;;;;;;;;;;;;;;;;;;;;;;;;;;;;;;;;;;;;;;;;;;;13,8;ppm;INAA;28;ppm;INAA;;;;16;ppm;INAA;4,1;ppm;INAA;1,1;ppm;INAA;;;;0,75;ppm;INAA;;;;;;;;;;;;;2,7;ppm;INAA;0,37;ppm;INAA;0,29;ppm;TITR;0,03;ppm;INAA;0,02;ppm;INAA;;;;;;;;;;;;;;;;;;;;;;5,4;ppm;INAA;8,1;ppm;INAA;14,8;ppm;ES;227;ppm;Unknown;;;;;;;;;;;;;40;ppm;Unknown;38;ppm;Unknown;0,91;ppm;INAA;110;ppm;Unknown;20;ppm;ICP;;;;3,1;ppm;INAA;;;;;;;;;;;;;;;;;;;;;;11;ppm;ICP;42;ppm;Unknown;;;;;;;;;;10;ppm;Unknown;8,3;ppm;Unknown;47;ppm;Unknown;;;;;;;;;;0,04;ppm;INAA;0,33;ppm;INAA;32;ppm;INAA;;;;194;ppm;Unknown;0,68;ppm;INAA;2,8;ppm;INAA;;;;;;;0,5;ppm;INAA;;;;;;;24;ppm;Unknown;74;ppm;Unknown;118;ppm;Unknown;;;;;;;;;;;;;;;;;;;;;;;;;5,4;ppm;INAA;5,4;ppm;INAA;;;;0,4;wt%;TITR;2;wt%;TITR;0,4;wt%;TITR;2;wt%;TITR;;;