SAMPLE ID;IGSN;EXPEDITION ID;REFERENCES;LATITUDE;LONGITUDE;LOC PREC;MIN ELEVATION;MAX ELEVATION;TECTONIC SETTING;MIN AGE;AGE;MAX AGE;METHOD;ANALYZED MATERIAL;ROCK TYPE;ROCK NAME;MINERAL;SIO2;SIO2 Units;SIO2 Method;TIO2;TIO2 Units;TIO2 Method;AL2O3;AL2O3 Units;AL2O3 Method;CR2O3;CR2O3 Units;CR2O3 Method;FE2O3;FE2O3 Units;FE2O3 Method;FE2O3T;FE2O3T Units;FE2O3T Method;FEO;FEO Units;FEO Method;FEOT;FEOT Units;FEOT Method;NIO;NIO Units;NIO Method;MNO;MNO Units;MNO Method;MGO;MGO Units;MGO Method;CAO;CAO Units;CAO Method;SRO;SRO Units;SRO Method;NA2O;NA2O Units;NA2O Method;K2O;K2O Units;K2O Method;P2O5;P2O5 Units;P2O5 Method;BAO;BAO Units;BAO Method;LOI;LOI Units;LOI Method;H2O;H2O Units;H2O Method;H2O_M;H2O_M Units;H2O_M Method;H2O_P;H2O_P Units;H2O_P Method;SO3;SO3 Units;SO3 Method;COO;COO Units;COO Method;MN;MN Units;MN Method;NI;NI Units;NI Method;CO;CO Units;CO Method;CU;CU Units;CU Method;CD;CD Units;CD Method;ZN;ZN Units;ZN Method;AS;AS Units;AS Method;AG;AG Units;AG Method;S;S Units;S Method;ZRO2;ZRO2 Units;ZRO2 Method;AL;AL Units;AL Method;CA;CA Units;CA Method;SR87_SR86;SR87_SR86 Units;SR87_SR86 Method;SR87_SR86_INI;SR87_SR86_INI Units;SR87_SR86_INI Method;RB87_SR86;RB87_SR86 Units;RB87_SR86 Method;ND143_ND144;ND143_ND144 Units;ND143_ND144 Method;ND143_ND144_INI;ND143_ND144_INI Units;ND143_ND144_INI Method;SM147_ND144;SM147_ND144 Units;SM147_ND144 Method;E_ND;E_ND Units;E_ND Method;E_ND_INI;E_ND_INI Units;E_ND_INI Method;PB204_PB206;PB204_PB206 Units;PB204_PB206 Method;PB206_PB204;PB206_PB204 Units;PB206_PB204 Method;PB206_PB204_INI;PB206_PB204_INI Units;PB206_PB204_INI Method;PB207_PB204;PB207_PB204 Units;PB207_PB204 Method;PB207_PB204_INI;PB207_PB204_INI Units;PB207_PB204_INI Method;PB207_PB206;PB207_PB206 Units;PB207_PB206 Method;PB208_PB204;PB208_PB204 Units;PB208_PB204 Method;PB208_PB204_INI;PB208_PB204_INI Units;PB208_PB204_INI Method;PB208_PB206;PB208_PB206 Units;PB208_PB206 Method;HF176_HF177;HF176_HF177 Units;HF176_HF177 Method;RE187_OS188;RE187_OS188 Units;RE187_OS188 Method;OS187_OS188;OS187_OS188 Units;OS187_OS188 Method;OS187_OS188_INI;OS187_OS188_INI Units;OS187_OS188_INI Method;G_OS;G_OS Units;G_OS Method;G_OS_INI;G_OS_INI Units;G_OS_INI Method;ND143_ND144_INI;ND143_ND144_INI Units;ND143_ND144_INI Method;PB206_PB204_INI;PB206_PB204_INI Units;PB206_PB204_INI Method;PB207_PB204_INI;PB207_PB204_INI Units;PB207_PB204_INI Method;PB208_PB204_INI;PB208_PB204_INI Units;PB208_PB204_INI Method;SR87_SR86_INI;SR87_SR86_INI Units;SR87_SR86_INI Method;HE;HE Units;HE Method;HE3;HE3 Units;HE3 Method;HE3_HE4_R_RA;HE3_HE4_R_RA Units;HE3_HE4_R_RA Method;AR36;AR36 Units;AR36 Method;AR40;AR40 Units;AR40 Method;AR40_AR36;AR40_AR36 Units;AR40_AR36 Method;NE20;NE20 Units;NE20 Method;NE20_NE22;NE20_NE22 Units;NE20_NE22 Method;NE21_NE22;NE21_NE22 Units;NE21_NE22 Method;LA;LA Units;LA Method;CE;CE Units;CE Method;PR;PR Units;PR Method;ND;ND Units;ND Method;SM;SM Units;SM Method;EU;EU Units;EU Method;GD;GD Units;GD Method;TB;TB Units;TB Method;DY;DY Units;DY Method;HO;HO Units;HO Method;ER;ER Units;ER Method;TM;TM Units;TM Method;YB;YB Units;YB Method;LU;LU Units;LU Method;CO2;CO2 Units;CO2 Method;F;F Units;F Method;CL;CL Units;CL Method;U238_PB204;U238_PB204 Units;U238_PB204 Method;TH230_TH232;TH230_TH232 Units;TH230_TH232 Method;RA226_ACTIVITY;RA226_ACTIVITY Units;RA226_ACTIVITY Method;PB210_RA226;PB210_RA226 Units;PB210_RA226 Method;PB210_ACTIVITY;PB210_ACTIVITY Units;PB210_ACTIVITY Method;AG;AG Units;AG Method;AL;AL Units;AL Method;AS;AS Units;AS Method;AU;AU Units;AU Method;B;B Units;B Method;BA;BA Units;BA Method;BE;BE Units;BE Method;BI;BI Units;BI Method;CA;CA Units;CA Method;CD;CD Units;CD Method;CO;CO Units;CO Method;CR;CR Units;CR Method;CS;CS Units;CS Method;CU;CU Units;CU Method;GA;GA Units;GA Method;GER;GER Units;GER Method;HF;HF Units;HF Method;INDIUM;INDIUM Units;INDIUM Method;IR;IR Units;IR Method;K;K Units;K Method;LI;LI Units;LI Method;MN;MN Units;MN Method;MO;MO Units;MO Method;NA;NA Units;NA Method;NB;NB Units;NB Method;NI;NI Units;NI Method;OS;OS Units;OS Method;P;P Units;P Method;PB;PB Units;PB Method;PD;PD Units;PD Method;PT;PT Units;PT Method;RB;RB Units;RB Method;RE;RE Units;RE Method;RH;RH Units;RH Method;RU;RU Units;RU Method;S;S Units;S Method;SB;SB Units;SB Method;SC;SC Units;SC Method;SN;SN Units;SN Method;SR;SR Units;SR Method;TA;TA Units;TA Method;TH;TH Units;TH Method;TI;TI Units;TI Method;TL;TL Units;TL Method;U;U Units;U Method;V;V Units;V Method;W;W Units;W Method;Y;Y Units;Y Method;ZN;ZN Units;ZN Method;ZR;ZR Units;ZR Method;DELTA_O18;DELTA_O18 Units;DELTA_O18 Method;DELTA_C13;DELTA_C13 Units;DELTA_C13 Method;DELTA_MO98;DELTA_MO98 Units;DELTA_MO98 Method;DELTA_ZN66;DELTA_ZN66 Units;DELTA_ZN66 Method;DELTA_ZN68;DELTA_ZN68 Units;DELTA_ZN68 Method;OS188;OS188 Units;OS188 Method;FE3P_FET;FE3P_FET Units;FE3P_FET Method;TI;TI Units;TI Method;AS;AS Units;AS Method;AS;AS Units;AS Method;GER;GER Units;GER Method;H2O_M;H2O_M Units;H2O_M Method;H2O_P;H2O_P Units;H2O_P Method;H2O_M;H2O_M Units;H2O_M Method;H2O_P;H2O_P Units;H2O_P Method;INDIUM;INDIUM Units;INDIUM Method
GROSCAMP-W-243075;;GROSSMAN-CAMP;GROSSMAN, 1991;40,23;-75,99;0,001;;;CONTINENTAL_RIFT;;;;"AAS; ICP; INAA; Unknown";WHOLE ROCK;IGNEOUS:VOLCANIC:MAFIC;DIABASE;;;;;;;;;;;;;;;;;10,51;wt%;Unknown;;;;;;;;;;;;;;;;11,89;wt%;Unknown;;;;1,97;wt%;Unknown;;;;;;;;;;;;;;;;;;;;;;;;;;;;;;;110;ppm;Unknown;48;ppm;Unknown;67;ppm;Unknown;;;;58;ppm;Unknown;;;;0,031;ppm;AAS;;;;;;;;;;;;;;;;;;;;;;;;;;;;;;;;;;;;;;;;;;;;;;;;;;;;;;;;;;;;;;;;;;;;;;;;;;;;;;;;;;;;;;;;;;;;;;;;;;;;;;;;;;;;;;;;;;;;;;;;;;;;7,3;ppm;INAA;15;ppm;INAA;;;;7,3;ppm;INAA;2,42;ppm;INAA;0,82;ppm;INAA;;;;0,46;ppm;INAA;;;;;;;;;;;;;1,6;ppm;INAA;0,22;ppm;INAA;;;;;;;;;;;;;;;;;;;;;;;;;0,031;ppm;AAS;;;;;;;;;;;;;94;ppm;Unknown;;;;;;;;;;;;;48;ppm;Unknown;208;ppm;Unknown;0,49;ppm;INAA;67;ppm;Unknown;;;;;;;1,7;ppm;INAA;;;;;;;;;;;;;;;;;;;;;;4,3;ppm;ICP;110;ppm;Unknown;;;;;;;;;;;;;;;;13;ppm;Unknown;;;;;;;;;;;;;;;;40;ppm;INAA;;;;169;ppm;Unknown;0,37;ppm;INAA;1,5;ppm;INAA;;;;;;;0,44;ppm;INAA;;;;;;;17;ppm;Unknown;58;ppm;Unknown;64;ppm;Unknown;;;;;;;;;;;;;;;;;;;;;;;;;;;;;;;;;;;;;;;;;;;;;;;;
GROSCAMP-W-243076;;GROSSMAN-CAMP;GROSSMAN, 1991;40,23;-75,99;0,001;;;CONTINENTAL_RIFT;;;;"AAS; ICP; INAA; Unknown";WHOLE ROCK;IGNEOUS:VOLCANIC:MAFIC;DIABASE;;;;;;;;;;;;;;;;;10,31;wt%;Unknown;;;;;;;;;;;;;;;;11,75;wt%;Unknown;;;;1,73;wt%;Unknown;;;;;;;;;;;;;;;;;;;;;;;;;;;;;;;120;ppm;Unknown;49;ppm;Unknown;62;ppm;Unknown;;;;66;ppm;Unknown;;;;0,031;ppm;AAS;;;;;;;;;;;;;;;;;;;;;;;;;;;;;;;;;;;;;;;;;;;;;;;;;;;;;;;;;;;;;;;;;;;;;;;;;;;;;;;;;;;;;;;;;;;;;;;;;;;;;;;;;;;;;;;;;;;;;;;;;;;;6,4;ppm;INAA;14;ppm;INAA;;;;6,9;ppm;INAA;2,14;ppm;INAA;0,74;ppm;INAA;;;;0,44;ppm;INAA;;;;;;;;;;;;;1,5;ppm;INAA;0,21;ppm;INAA;;;;;;;;;;;;;;;;;;;;;;;;;0,031;ppm;AAS;;;;;;;;;;;;;110;ppm;Unknown;;;;;;;;;;;;;49;ppm;Unknown;390;ppm;Unknown;0,52;ppm;INAA;62;ppm;Unknown;;;;;;;1,4;ppm;INAA;;;;;;;;;;;;;;;;;;;;;;4;ppm;ICP;120;ppm;Unknown;;;;;;;;;;;;;;;;11;ppm;Unknown;;;;;;;;;;;;;0,15;ppm;INAA;40;ppm;INAA;;;;153;ppm;Unknown;0,34;ppm;INAA;1,3;ppm;INAA;;;;;;;;;;;;;;;;13;ppm;Unknown;66;ppm;Unknown;63;ppm;Unknown;;;;;;;;;;;;;;;;;;;;;;;;;;;;;;;;;;;;;;;;;;;;;;;;
GROSCAMP-W-243077;;GROSSMAN-CAMP;GROSSMAN, 1991;40,23;-75,99;0,001;;;CONTINENTAL_RIFT;;;;"AAS; ICP; INAA; Unknown";WHOLE ROCK;IGNEOUS:VOLCANIC:MAFIC;DIABASE;;;;;;;;;;;;;;;;;10,34;wt%;Unknown;;;;;;;;;;;;;;;;11,33;wt%;Unknown;;;;1,67;wt%;Unknown;;;;;;;;;;;;;;;;;;;;;;;;;;;;;;;130;ppm;Unknown;49;ppm;Unknown;54;ppm;Unknown;;;;58;ppm;Unknown;;;;0,029;ppm;AAS;;;;;;;;;;;;;;;;;;;;;;;;;;;;;;;;;;;;;;;;;;;;;;;;;;;;;;;;;;;;;;;;;;;;;;;;;;;;;;;;;;;;;;;;;;;;;;;;;;;;;;;;;;;;;;;;;;;;;;;;;;;;6,5;ppm;INAA;15;ppm;INAA;;;;7,5;ppm;INAA;2,17;ppm;INAA;0,76;ppm;INAA;;;;0,47;ppm;INAA;;;;;;;;;;;;;1,5;ppm;INAA;0,21;ppm;INAA;;;;;;;;;;;;;;;;;;;;;;;;;0,029;ppm;AAS;;;;;;;4,7;ppm;INAA;;;;90;ppm;Unknown;;;;;;;;;;;;;49;ppm;Unknown;460;ppm;Unknown;0,45;ppm;INAA;54;ppm;Unknown;;;;;;;1,5;ppm;INAA;;;;;;;;;;;;;;;;;;;;;;4;ppm;ICP;130;ppm;Unknown;;;;;;;;;;;;;;;;10;ppm;Unknown;;;;;;;;;;;;;;;;40;ppm;INAA;;;;151;ppm;Unknown;0,34;ppm;INAA;1,4;ppm;INAA;;;;;;;;;;;;;;;;16;ppm;Unknown;58;ppm;Unknown;61;ppm;Unknown;;;;;;;;;;;;;;;;;;;;;;;;;;;;;;;;;;;;;;;;;;;;;;;;
GROSCAMP-W-243078;;GROSSMAN-CAMP;GROSSMAN, 1991;40,23;-75,99;0,001;;;CONTINENTAL_RIFT;;;;"AAS; ICP; INAA; Unknown";WHOLE ROCK;IGNEOUS:VOLCANIC:MAFIC;DIABASE;;;;;;;;;;;;;;;;;10,63;wt%;Unknown;;;;;;;;;;;;;;;;11,89;wt%;Unknown;;;;1,7;wt%;Unknown;;;;;;;;;;;;;;;;;;;;;;;;;;;;;;;130;ppm;Unknown;51;ppm;Unknown;47;ppm;Unknown;;;;55;ppm;Unknown;;;;0,027;ppm;AAS;;;;;;;;;;;;;;;;;;;;;;;;;;;;;;;;;;;;;;;;;;;;;;;;;;;;;;;;;;;;;;;;;;;;;;;;;;;;;;;;;;;;;;;;;;;;;;;;;;;;;;;;;;;;;;;;;;;;;;;;;;;;6,2;ppm;INAA;14;ppm;INAA;;;;7,4;ppm;INAA;2,16;ppm;INAA;0,75;ppm;INAA;;;;0,43;ppm;INAA;;;;;;;;;;;;;1,5;ppm;INAA;0,21;ppm;INAA;;;;;;;;;;;;;;;;;;;;;;;;;0,027;ppm;AAS;;;;;;;;;;;;;82;ppm;Unknown;;;;;;;;;;;;;51;ppm;Unknown;480;ppm;Unknown;0,49;ppm;INAA;47;ppm;Unknown;;;;;;;1,5;ppm;INAA;;;;;;;;;;;;;;;;;;;;;;3,8;ppm;ICP;130;ppm;Unknown;;;;;;;;;;;;;;;;6;ppm;Unknown;;;;;;;;;;;;;;;;42;ppm;INAA;;;;144;ppm;Unknown;0,29;ppm;INAA;1,3;ppm;INAA;;;;;;;0,5;ppm;INAA;;;;;;;12;ppm;Unknown;55;ppm;Unknown;59;ppm;Unknown;;;;;;;;;;;;;;;;;;;;;;;;;;;;;;;;;;;;;;;;;;;;;;;;
GROSCAMP-W-243079;;GROSSMAN-CAMP;GROSSMAN, 1991;40,23;-75,99;0,001;;;CONTINENTAL_RIFT;;;;"AAS; ICP; INAA; Unknown";WHOLE ROCK;IGNEOUS:VOLCANIC:MAFIC;DIABASE;;;;;;;;;;;;;;;;;10,28;wt%;Unknown;;;;;;;;;;;;;;;;12,31;wt%;Unknown;;;;1,73;wt%;Unknown;;;;;;;;;;;;;;;;;;;;;;;;;;;;;;;120;ppm;Unknown;49;ppm;Unknown;59;ppm;Unknown;;;;54;ppm;Unknown;;;;0,027;ppm;AAS;;;;;;;;;;;;;;;;;;;;;;;;;;;;;;;;;;;;;;;;;;;;;;;;;;;;;;;;;;;;;;;;;;;;;;;;;;;;;;;;;;;;;;;;;;;;;;;;;;;;;;;;;;;;;;;;;;;;;;;;;;;;6,4;ppm;INAA;14;ppm;INAA;;;;7,8;ppm;INAA;2,18;ppm;INAA;0,75;ppm;INAA;;;;0,48;ppm;INAA;;;;;;;;;;;;;1,5;ppm;INAA;0,21;ppm;INAA;;;;;;;;;;;;;;;;;;;;;;;;;0,027;ppm;AAS;;;;;;;4,3;ppm;INAA;;;;92;ppm;Unknown;;;;;;;;;;;;;49;ppm;Unknown;410;ppm;Unknown;0,91;ppm;INAA;59;ppm;Unknown;;;;;;;1,5;ppm;INAA;;;;;;;;;;;;;;;;;;;;;;3,8;ppm;ICP;120;ppm;Unknown;;;;;;;;;;;;;;;;12;ppm;Unknown;;;;;;;;;;;;;;;;40;ppm;INAA;;;;154;ppm;Unknown;0,3;ppm;INAA;1,2;ppm;INAA;;;;;;;;;;;;;;;;17;ppm;Unknown;54;ppm;Unknown;67;ppm;Unknown;;;;;;;;;;;;;;;;;;;;;;;;;;;;;;;;;;;;;;;;;;;;;;;;
GROSCAMP-W-243080;;GROSSMAN-CAMP;GROSSMAN, 1991;40,23;-75,99;0,001;;;CONTINENTAL_RIFT;;;;"AAS; ICP; INAA; Unknown";WHOLE ROCK;IGNEOUS:VOLCANIC:MAFIC;DIABASE;;;;;;;;;;;;;;;;;10,48;wt%;Unknown;;;;;;;;;;;;;;;;11,47;wt%;Unknown;;;;1,81;wt%;Unknown;;;;;;;;;;;;;;;;;;;;;;;;;;;;;;;130;ppm;Unknown;49;ppm;Unknown;67;ppm;Unknown;;;;64;ppm;Unknown;;;;0,031;ppm;AAS;;;;;;;;;;;;;;;;;;;;;;;;;;;;;;;;;;;;;;;;;;;;;;;;;;;;;;;;;;;;;;;;;;;;;;;;;;;;;;;;;;;;;;;;;;;;;;;;;;;;;;;;;;;;;;;;;;;;;;;;;;;;7;ppm;INAA;16;ppm;INAA;;;;9,3;ppm;INAA;2,4;ppm;INAA;0,8;ppm;INAA;;;;0,45;ppm;INAA;;;;;;;;;;;;;1,7;ppm;INAA;0,23;ppm;INAA;;;;;;;;;;;;;;;;;;;;;;;;;0,031;ppm;AAS;;;;;;;;;;;;;85;ppm;Unknown;;;;;;;;;;;;;49;ppm;Unknown;510;ppm;Unknown;0,38;ppm;INAA;67;ppm;Unknown;;;;;;;1,7;ppm;INAA;;;;;;;;;;;;;;;;;;;;;;4,4;ppm;ICP;130;ppm;Unknown;;;;;;;;;;;;;;;;7;ppm;Unknown;;;;;;;;;;;;;;;;41;ppm;INAA;;;;150;ppm;Unknown;0,33;ppm;INAA;1,4;ppm;INAA;;;;;;;0,4;ppm;INAA;;;;;;;11;ppm;Unknown;64;ppm;Unknown;65;ppm;Unknown;;;;;;;;;;;;;;;;;;;;;;;;;;;;;;;;;;;;;;;;;;;;;;;;
GROSCAMP-W-246941;;GROSSMAN-CAMP;GROSSMAN, 1991;38,526;-78,014;0,001;;;CONTINENTAL_RIFT;;;;"ICPMS; Unknown";WHOLE ROCK;IGNEOUS:VOLCANIC:MAFIC;DIABASE;;;;;;;;;;;;;;;;;;;;;;;;;;;;;;;;;;;;;;;;;;;;;;;;;;;;;;;;;;;;;;;;;;;;;;;;;;19;ppm;Unknown;36;ppm;Unknown;140;ppm;Unknown;;;;;;;;;;;;;;;;;;;;;;;;;;;;;;;;;;;;;;;;;;;;;;;;;;;;;;;;;;;;;;;;;;;;;;;;;;;;;;;;;;;;;;;;;;;;;;;;;;;;;;;;;;;;;;;;;;;;;;;;;;;;;;;;;;;;;;;;;;;;;;;;;;;;;;;;;;;;;;;;;;;;;;;;;;;;;;;;;;;;;;;;;;;;;;;;;;;;;;;;;;;;;;;;;;;;;;;;;;;;;;;;;;;;;;;;36;ppm;Unknown;;;;;;;140;ppm;Unknown;;;;;;;;;;;;;;;;;;;;;;;;;;;;;;;;;;19;ppm;Unknown;;;;;;;;;;24;ppm;Unknown;7,2;ppm;Unknown;;;;;;;;;;0,6;ppm;ICPMS;;;;;;;;;;;;;;;;;;;;;;;;;;;;;;;;;;;;;;;;;;;;;;;;;;;;;;;;;;;;;;;;;;;;;;;;;;;;;;;;;;;;;;;;;;;;;
GROSCAMP-W-243081;;GROSSMAN-CAMP;GROSSMAN, 1991;40,23;-75,99;0,001;;;CONTINENTAL_RIFT;;;;"AAS; ICP; INAA; Unknown";WHOLE ROCK;IGNEOUS:VOLCANIC:MAFIC;DIABASE;;;;;;;;;;;;;;;;;14,87;wt%;Unknown;;;;;;;;;;;;;;;;7,97;wt%;Unknown;;;;2,79;wt%;Unknown;;;;;;;;;;;;;;;;;;;;;;;;;;;;;;;34;ppm;Unknown;43;ppm;Unknown;200;ppm;Unknown;;;;93;ppm;Unknown;2,4;ppm;INAA;0,088;ppm;AAS;;;;;;;;;;;;;;;;;;;;;;;;;;;;;;;;;;;;;;;;;;;;;;;;;;;;;;;;;;;;;;;;;;;;;;;;;;;;;;;;;;;;;;;;;;;;;;;;;;;;;;;;;;;;;;;;;;;;;;;;;;;;23,9;ppm;INAA;50;ppm;INAA;;;;26;ppm;INAA;7;ppm;INAA;1,75;ppm;INAA;;;;1,2;ppm;INAA;;;;;;;;;;;;;3,9;ppm;INAA;0,55;ppm;INAA;;;;;;;;;;;;;;;;;;;;;;;;;0,088;ppm;AAS;;;;2,4;ppm;INAA;12;ppm;INAA;;;;273;ppm;Unknown;;;;;;;;;;;;;43;ppm;Unknown;14;ppm;Unknown;1,5;ppm;INAA;200;ppm;Unknown;;;;;;;5,5;ppm;INAA;;;;;;;;;;;;;;;;;;;;;;17;ppm;ICP;34;ppm;Unknown;;;;;;;;;;;;;;;;37;ppm;Unknown;;;;;;;;;;;;;0,28;ppm;INAA;36;ppm;INAA;;;;243;ppm;Unknown;1,2;ppm;INAA;4,9;ppm;INAA;;;;;;;0,72;ppm;INAA;;;;;;;44;ppm;Unknown;93;ppm;Unknown;191;ppm;Unknown;;;;;;;;;;;;;;;;;;;;;;;;;2,4;ppm;INAA;2,4;ppm;INAA;;;;;;;;;;;;;;;;;;
GROSCAMP-W-243086;;GROSSMAN-CAMP;GROSSMAN, 1991;40,33;-74,87;1;;;CONTINENTAL_RIFT;;;;"ICP; INAA; Unknown";WHOLE ROCK;IGNEOUS:VOLCANIC:FELSIC;GRANOPHYRE;;;;;;;;;;;;;;;;;14,73;wt%;Unknown;;;;;;;;;;;;;;;;4,2;wt%;Unknown;;;;3,64;wt%;Unknown;;;;;;;;;;;;;;;;;;;;;;;;;;;;;;;9;ppm;Unknown;32;ppm;Unknown;243;ppm;Unknown;;;;126;ppm;Unknown;4,8;ppm;INAA;;;;0,07;ppm;INAA;;;;;;;;;;;;;;;;;;;;;;;;;;;;;;;;;;;;;;;;;;;;;;;;;;;;;;;;;;;;;;;;;;;;;;;;;;;;;;;;;;;;;;;;;;;;;;;;;;;;;;;;;;;;;;;;;;;;;;;;;43;ppm;INAA;89;ppm;INAA;;;;46;ppm;INAA;12,2;ppm;INAA;2,86;ppm;INAA;;;;2,15;ppm;INAA;;;;;;;;;;;;;6,9;ppm;INAA;0,94;ppm;INAA;;;;0,11;ppm;INAA;0,2;ppm;INAA;;;;;;;;;;;;;;;;;;;;;;4,8;ppm;INAA;;;;;;;490;ppm;Unknown;;;;;;;;;;;;;32;ppm;Unknown;2,3;ppm;Unknown;2,96;ppm;INAA;243;ppm;Unknown;;;;;;;9,4;ppm;INAA;;;;;;;;;;;;;;;;;;;;;;31;ppm;ICP;9;ppm;Unknown;;;;;;;;;;0,8;ppm;Unknown;;;;69;ppm;Unknown;;;;;;;;;;0,07;ppm;INAA;0,31;ppm;INAA;23;ppm;INAA;;;;167;ppm;Unknown;;;;9,7;ppm;INAA;;;;;;;1,9;ppm;INAA;;;;;;;76;ppm;Unknown;126;ppm;Unknown;320;ppm;Unknown;;;;;;;;;;;;;;;;;;;;;;;;;4,8;ppm;INAA;4,8;ppm;INAA;;;;;;;;;;;;;;;;;;
GROSCAMP-W-243087;;GROSSMAN-CAMP;GROSSMAN, 1991;40,33;-74,87;1;;;CONTINENTAL_RIFT;;;;"ICP; INAA; Unknown";WHOLE ROCK;IGNEOUS:VOLCANIC:FELSIC;GRANOPHYRE;;;;;;;;;;;;;;;;;13,99;wt%;Unknown;;;;;;;;;;;;;;;;5,32;wt%;Unknown;;;;3,33;wt%;Unknown;;;;;;;;;;;;;;;;;;;;;;;;;;;;;;;5;ppm;Unknown;34;ppm;Unknown;278;ppm;Unknown;;;;350;ppm;Unknown;3,2;ppm;INAA;;;;0,06;ppm;INAA;;;;;;;;;;;;;;;;;;;;;;;;;;;;;;;;;;;;;;;;;;;;;;;;;;;;;;;;;;;;;;;;;;;;;;;;;;;;;;;;;;;;;;;;;;;;;;;;;;;;;;;;;;;;;;;;;;;;;;;;;43;ppm;INAA;88;ppm;INAA;;;;48;ppm;INAA;11,7;ppm;INAA;2,73;ppm;INAA;;;;2,06;ppm;INAA;;;;;;;;;;;;;6,7;ppm;INAA;0,92;ppm;INAA;;;;0,09;ppm;INAA;0,32;ppm;INAA;;;;;;;;;;;;;;;;;;;;;;3,2;ppm;INAA;;;;;;;580;ppm;Unknown;;;;;;;;;;;;;34;ppm;Unknown;2,3;ppm;Unknown;3,6;ppm;INAA;278;ppm;Unknown;;;;;;;9,8;ppm;INAA;;;;;;;;;;;;;;;;;;;;;;45;ppm;ICP;5;ppm;Unknown;;;;;;;;;;1,1;ppm;Unknown;;;;88;ppm;Unknown;;;;;;;;;;0,06;ppm;INAA;0,8;ppm;INAA;21,4;ppm;INAA;;;;193;ppm;Unknown;;;;10;ppm;INAA;;;;;;;1,9;ppm;INAA;;;;;;;80;ppm;Unknown;350;ppm;Unknown;330;ppm;Unknown;;;;;;;;;;;;;;;;;;;;;;;;;3,2;ppm;INAA;3,2;ppm;INAA;;;;;;;;;;;;;;;;;;
GROSCAMP-W-243088;;GROSSMAN-CAMP;GROSSMAN, 1991;40,33;-74,87;1;;;CONTINENTAL_RIFT;;;;"ICP; INAA; Unknown";WHOLE ROCK;IGNEOUS:VOLCANIC:FELSIC;GRANOPHYRE;;;;;;;;;;;;;;;;;14,2;wt%;Unknown;;;;;;;;;;;;;;;;4,62;wt%;Unknown;;;;3,46;wt%;Unknown;;;;;;;;;;;;;;;;;;;;;;;;;;;;;;;7;ppm;Unknown;36;ppm;Unknown;310;ppm;Unknown;;;;140;ppm;Unknown;5,4;ppm;INAA;;;;0,06;ppm;INAA;;;;;;;;;;;;;;;;;;;;;;;;;;;;;;;;;;;;;;;;;;;;;;;;;;;;;;;;;;;;;;;;;;;;;;;;;;;;;;;;;;;;;;;;;;;;;;;;;;;;;;;;;;;;;;;;;;;;;;;;;43;ppm;INAA;86;ppm;INAA;;;;43;ppm;INAA;11,5;ppm;INAA;2,82;ppm;INAA;;;;2,02;ppm;INAA;;;;;;;;;;;;;6,6;ppm;INAA;0,89;ppm;INAA;;;;0,09;ppm;INAA;0,33;ppm;INAA;;;;;;;;;;;;;;;;;;;;;;5,4;ppm;INAA;;;;;;;580;ppm;Unknown;;;;;;;;;;;;;36;ppm;Unknown;;;;3,2;ppm;INAA;310;ppm;Unknown;;;;;;;9,6;ppm;INAA;;;;;;;;;;;;;;;;;;;;;;35;ppm;ICP;7;ppm;Unknown;;;;;;;;;;0,6;ppm;Unknown;;;;82;ppm;Unknown;;;;;;;;;;0,06;ppm;INAA;0,53;ppm;INAA;21,3;ppm;INAA;;;;203;ppm;Unknown;;;;9,4;ppm;INAA;;;;;;;1,9;ppm;INAA;;;;;;;126;ppm;Unknown;140;ppm;Unknown;360;ppm;Unknown;;;;;;;;;;;;;;;;;;;;;;;;;5,4;ppm;INAA;5,4;ppm;INAA;;;;;;;;;;;;;;;;;;
GROSCAMP-W-243089;;GROSSMAN-CAMP;GROSSMAN, 1991;40,33;-74,87;1;;;CONTINENTAL_RIFT;;;;"ICP; INAA; Unknown";WHOLE ROCK;IGNEOUS:PLUTONIC:MAFIC;GABBRO;;;;;;;;;;;;;;;;;15,59;wt%;Unknown;;;;;;;;;;;;;;;;4,9;wt%;Unknown;;;;3,06;wt%;Unknown;;;;;;;;;;;;;;;;;;;;;;;;;;;;;;;6;ppm;Unknown;40;ppm;Unknown;270;ppm;Unknown;;;;121;ppm;Unknown;4,5;ppm;INAA;;;;0,04;ppm;INAA;;;;;;;;;;;;;;;;;;;;;;;;;;;;;;;;;;;;;;;;;;;;;;;;;;;;;;;;;;;;;;;;;;;;;;;;;;;;;;;;;;;;;;;;;;;;;;;;;;;;;;;;;;;;;;;;;;;;;;;;;34;ppm;INAA;66;ppm;INAA;;;;35;ppm;INAA;9,5;ppm;INAA;2,21;ppm;INAA;;;;1,65;ppm;INAA;;;;;;;;;;;;;5,4;ppm;INAA;0,75;ppm;INAA;;;;0,07;ppm;INAA;0,14;ppm;INAA;;;;;;;;;;;;;;;;;;;;;;4,5;ppm;INAA;9,6;ppm;INAA;;;;460;ppm;Unknown;;;;;;;;;;;;;40;ppm;Unknown;2,8;ppm;Unknown;2,7;ppm;INAA;270;ppm;Unknown;;;;;;;7,6;ppm;INAA;;;;;;;;;;;;;;;;;;;;;;25;ppm;ICP;6;ppm;Unknown;;;;;;;;;;12;ppm;Unknown;1,1;ppm;Unknown;89;ppm;Unknown;;;;;;;;;;0,04;ppm;INAA;0,44;ppm;INAA;30;ppm;INAA;;;;184;ppm;Unknown;;;;6,9;ppm;INAA;;;;;;;1,6;ppm;INAA;;;;;;;74;ppm;Unknown;121;ppm;Unknown;280;ppm;Unknown;;;;;;;;;;;;;;;;;;;;;;;;;4,5;ppm;INAA;4,5;ppm;INAA;;;;;;;;;;;;;;;;;;
GROSCAMP-W-243090;;GROSSMAN-CAMP;GROSSMAN, 1991;40,33;-74,87;1;;;CONTINENTAL_RIFT;;;;"ICP; INAA; Unknown";WHOLE ROCK;IGNEOUS:VOLCANIC:MAFIC;DIABASE;;;;;;;;;;;;;;;;;11,44;wt%;Unknown;;;;;;;;;;;;;;;;8,95;wt%;Unknown;;;;2,3;wt%;Unknown;;;;;;;;;;;;;;;;;;;;;;;;;;;;;;;54;ppm;Unknown;47;ppm;Unknown;152;ppm;Unknown;;;;92;ppm;Unknown;;;;;;;0,03;ppm;INAA;;;;;;;;;;;;;;;;;;;;;;;;;;;;;;;;;;;;;;;;;;;;;;;;;;;;;;;;;;;;;;;;;;;;;;;;;;;;;;;;;;;;;;;;;;;;;;;;;;;;;;;;;;;;;;;;;;;;;;;;;13;ppm;INAA;26,4;ppm;INAA;;;;15;ppm;INAA;3,9;ppm;INAA;1,23;ppm;INAA;;;;0,74;ppm;INAA;;;;;;;;;;;;;2,3;ppm;INAA;0,35;ppm;INAA;;;;0,03;ppm;INAA;0,1;ppm;INAA;;;;;;;;;;;;;;;;;;;;;;;;;;;;;;;228;ppm;Unknown;;;;;;;;;;;;;47;ppm;Unknown;61;ppm;Unknown;1,7;ppm;INAA;152;ppm;Unknown;;;;;;;2,69;ppm;INAA;;;;;;;;;;;;;;;;;;;;;;12;ppm;ICP;54;ppm;Unknown;;;;;;;;;;1,3;ppm;Unknown;;;;38;ppm;Unknown;;;;;;;;;;0,03;ppm;INAA;;;;32;ppm;INAA;;;;232;ppm;Unknown;;;;2,6;ppm;INAA;;;;;;;0,64;ppm;INAA;;;;;;;42;ppm;Unknown;92;ppm;Unknown;120;ppm;Unknown;;;;;;;;;;;;;;;;;;;;;;;;;;;;;;;;;;;;;;;;;;;;;;;;
GROSCAMP-W-243091;;GROSSMAN-CAMP;GROSSMAN, 1991;40,33;-74,87;1;;;CONTINENTAL_RIFT;;;;"ICP; INAA; Unknown";WHOLE ROCK;IGNEOUS:VOLCANIC:MAFIC;DIABASE;;;;;;;;;;;;;;;;;11,24;wt%;Unknown;;;;;;;;;;;;;;;;10,91;wt%;Unknown;;;;2,16;wt%;Unknown;;;;;;;;;;;;;;;;;;;;;;;;;;;;;;;70;ppm;Unknown;48;ppm;Unknown;113;ppm;Unknown;;;;71;ppm;Unknown;;;;;;;0,04;ppm;INAA;;;;;;;;;;;;;;;;;;;;;;;;;;;;;;;;;;;;;;;;;;;;;;;;;;;;;;;;;;;;;;;;;;;;;;;;;;;;;;;;;;;;;;;;;;;;;;;;;;;;;;;;;;;;;;;;;;;;;;;;;10;ppm;INAA;21,1;ppm;INAA;;;;9,8;ppm;INAA;3,3;ppm;INAA;1,04;ppm;INAA;;;;0,61;ppm;INAA;;;;;;;;;;;;;2,1;ppm;INAA;0,3;ppm;INAA;;;;0,03;ppm;INAA;0,01;ppm;INAA;;;;;;;;;;;;;;;;;;;;;;;;;;;;;;;168;ppm;Unknown;;;;;;;;;;;;;48;ppm;Unknown;71;ppm;Unknown;0,84;ppm;INAA;113;ppm;Unknown;;;;;;;2,4;ppm;INAA;;;;;;;;;;;;;;;;;;;;;;8,8;ppm;ICP;70;ppm;Unknown;;;;;;;;;;1;ppm;Unknown;1,3;ppm;Unknown;31;ppm;Unknown;;;;;;;;;;0,04;ppm;INAA;;;;35;ppm;INAA;;;;215;ppm;Unknown;;;;2,2;ppm;INAA;;;;;;;0,52;ppm;INAA;;;;;;;32;ppm;Unknown;71;ppm;Unknown;107;ppm;Unknown;;;;;;;;;;;;;;;;;;;;;;;;;;;;;;;;;;;;;;;;;;;;;;;;