SAMPLE ID;IGSN;EXPEDITION ID;REFERENCES;LATITUDE;LONGITUDE;LOC PREC;MIN ELEVATION;MAX ELEVATION;TECTONIC SETTING;MIN AGE;AGE;MAX AGE;METHOD;ANALYZED MATERIAL;ROCK TYPE;ROCK NAME;MINERAL;SIO2;SIO2 Units;SIO2 Method;TIO2;TIO2 Units;TIO2 Method;AL2O3;AL2O3 Units;AL2O3 Method;CR2O3;CR2O3 Units;CR2O3 Method;FE2O3;FE2O3 Units;FE2O3 Method;FE2O3T;FE2O3T Units;FE2O3T Method;FEO;FEO Units;FEO Method;FEOT;FEOT Units;FEOT Method;NIO;NIO Units;NIO Method;MNO;MNO Units;MNO Method;MGO;MGO Units;MGO Method;CAO;CAO Units;CAO Method;SRO;SRO Units;SRO Method;NA2O;NA2O Units;NA2O Method;K2O;K2O Units;K2O Method;P2O5;P2O5 Units;P2O5 Method;BAO;BAO Units;BAO Method;LOI;LOI Units;LOI Method;H2O;H2O Units;H2O Method;H2O_M;H2O_M Units;H2O_M Method;H2O_P;H2O_P Units;H2O_P Method;SO3;SO3 Units;SO3 Method;COO;COO Units;COO Method;MN;MN Units;MN Method;NI;NI Units;NI Method;CO;CO Units;CO Method;CU;CU Units;CU Method;CD;CD Units;CD Method;ZN;ZN Units;ZN Method;AS;AS Units;AS Method;AG;AG Units;AG Method;S;S Units;S Method;ZRO2;ZRO2 Units;ZRO2 Method;AL;AL Units;AL Method;CA;CA Units;CA Method;SR87_SR86;SR87_SR86 Units;SR87_SR86 Method;SR87_SR86_INI;SR87_SR86_INI Units;SR87_SR86_INI Method;RB87_SR86;RB87_SR86 Units;RB87_SR86 Method;ND143_ND144;ND143_ND144 Units;ND143_ND144 Method;ND143_ND144_INI;ND143_ND144_INI Units;ND143_ND144_INI Method;SM147_ND144;SM147_ND144 Units;SM147_ND144 Method;E_ND;E_ND Units;E_ND Method;E_ND_INI;E_ND_INI Units;E_ND_INI Method;PB204_PB206;PB204_PB206 Units;PB204_PB206 Method;PB206_PB204;PB206_PB204 Units;PB206_PB204 Method;PB206_PB204_INI;PB206_PB204_INI Units;PB206_PB204_INI Method;PB207_PB204;PB207_PB204 Units;PB207_PB204 Method;PB207_PB204_INI;PB207_PB204_INI Units;PB207_PB204_INI Method;PB207_PB206;PB207_PB206 Units;PB207_PB206 Method;PB208_PB204;PB208_PB204 Units;PB208_PB204 Method;PB208_PB204_INI;PB208_PB204_INI Units;PB208_PB204_INI Method;PB208_PB206;PB208_PB206 Units;PB208_PB206 Method;HF176_HF177;HF176_HF177 Units;HF176_HF177 Method;RE187_OS188;RE187_OS188 Units;RE187_OS188 Method;OS187_OS188;OS187_OS188 Units;OS187_OS188 Method;OS187_OS188_INI;OS187_OS188_INI Units;OS187_OS188_INI Method;G_OS;G_OS Units;G_OS Method;G_OS_INI;G_OS_INI Units;G_OS_INI Method;ND143_ND144_INI;ND143_ND144_INI Units;ND143_ND144_INI Method;PB206_PB204_INI;PB206_PB204_INI Units;PB206_PB204_INI Method;PB207_PB204_INI;PB207_PB204_INI Units;PB207_PB204_INI Method;PB208_PB204_INI;PB208_PB204_INI Units;PB208_PB204_INI Method;SR87_SR86_INI;SR87_SR86_INI Units;SR87_SR86_INI Method;HE;HE Units;HE Method;HE3;HE3 Units;HE3 Method;HE3_HE4_R_RA;HE3_HE4_R_RA Units;HE3_HE4_R_RA Method;AR36;AR36 Units;AR36 Method;AR40;AR40 Units;AR40 Method;AR40_AR36;AR40_AR36 Units;AR40_AR36 Method;NE20;NE20 Units;NE20 Method;NE20_NE22;NE20_NE22 Units;NE20_NE22 Method;NE21_NE22;NE21_NE22 Units;NE21_NE22 Method;LA;LA Units;LA Method;CE;CE Units;CE Method;PR;PR Units;PR Method;ND;ND Units;ND Method;SM;SM Units;SM Method;EU;EU Units;EU Method;GD;GD Units;GD Method;TB;TB Units;TB Method;DY;DY Units;DY Method;HO;HO Units;HO Method;ER;ER Units;ER Method;TM;TM Units;TM Method;YB;YB Units;YB Method;LU;LU Units;LU Method;CO2;CO2 Units;CO2 Method;F;F Units;F Method;CL;CL Units;CL Method;U238_PB204;U238_PB204 Units;U238_PB204 Method;TH230_TH232;TH230_TH232 Units;TH230_TH232 Method;RA226_ACTIVITY;RA226_ACTIVITY Units;RA226_ACTIVITY Method;PB210_RA226;PB210_RA226 Units;PB210_RA226 Method;PB210_ACTIVITY;PB210_ACTIVITY Units;PB210_ACTIVITY Method;AG;AG Units;AG Method;AL;AL Units;AL Method;AS;AS Units;AS Method;AU;AU Units;AU Method;B;B Units;B Method;BA;BA Units;BA Method;BE;BE Units;BE Method;BI;BI Units;BI Method;CA;CA Units;CA Method;CD;CD Units;CD Method;CO;CO Units;CO Method;CR;CR Units;CR Method;CS;CS Units;CS Method;CU;CU Units;CU Method;GA;GA Units;GA Method;GER;GER Units;GER Method;HF;HF Units;HF Method;INDIUM;INDIUM Units;INDIUM Method;IR;IR Units;IR Method;K;K Units;K Method;LI;LI Units;LI Method;MN;MN Units;MN Method;MO;MO Units;MO Method;NA;NA Units;NA Method;NB;NB Units;NB Method;NI;NI Units;NI Method;OS;OS Units;OS Method;P;P Units;P Method;PB;PB Units;PB Method;PD;PD Units;PD Method;PT;PT Units;PT Method;RB;RB Units;RB Method;RE;RE Units;RE Method;RH;RH Units;RH Method;RU;RU Units;RU Method;S;S Units;S Method;SB;SB Units;SB Method;SC;SC Units;SC Method;SN;SN Units;SN Method;SR;SR Units;SR Method;TA;TA Units;TA Method;TH;TH Units;TH Method;TI;TI Units;TI Method;TL;TL Units;TL Method;U;U Units;U Method;V;V Units;V Method;W;W Units;W Method;Y;Y Units;Y Method;ZN;ZN Units;ZN Method;ZR;ZR Units;ZR Method;DELTA_O18;DELTA_O18 Units;DELTA_O18 Method;DELTA_C13;DELTA_C13 Units;DELTA_C13 Method;DELTA_MO98;DELTA_MO98 Units;DELTA_MO98 Method;DELTA_ZN66;DELTA_ZN66 Units;DELTA_ZN66 Method;DELTA_ZN68;DELTA_ZN68 Units;DELTA_ZN68 Method;OS188;OS188 Units;OS188 Method;FE3P_FET;FE3P_FET Units;FE3P_FET Method;TI;TI Units;TI Method;AS;AS Units;AS Method;AS;AS Units;AS Method;GER;GER Units;GER Method;H2O_M;H2O_M Units;H2O_M Method;H2O_P;H2O_P Units;H2O_P Method;H2O_M;H2O_M Units;H2O_M Method;H2O_P;H2O_P Units;H2O_P Method;INDIUM;INDIUM Units;INDIUM Method
GROSCAMP-W-241825;;GROSSMAN-CAMP;GROSSMAN, 1991;36,1156;-78,7722;0,001;;;CONTINENTAL_RIFT;;;;"AAS; COL; ES; ICP; ICPMS; INAA; TITR; Unknown";WHOLE ROCK;IGNEOUS:VOLCANIC:MAFIC;DIABASE;;50,4;wt%;COL;0,62;wt%;COL;16,1;wt%;COL;;;;3,41;wt%;Unknown;;;;6,76;wt%;TITR;;;;;;;0,18;wt%;AAS;7,72;wt%;AAS;11,8;wt%;Unknown;;;;2,21;wt%;Unknown;0,36;wt%;AAS;0,11;wt%;COL;;;;;;;;;;0,25;wt%;TITR;0,89;wt%;TITR;;;;;;;;;;141;ppm;Unknown;48;ppm;Unknown;106;ppm;Unknown;;;;86;ppm;Unknown;;;;;;;0,05;ppm;INAA;;;;;;;;;;;;;;;;;;;;;;;;;;;;;;;;;;;;;;;;;;;;;;;;;;;;;;;;;;;;;;;;;;;;;;;;;;;;;;;;;;;;;;;;;;;;;;;;;;;;;;;;;;;;;;;;;;;;;;;;;6;ppm;INAA;14;ppm;INAA;;;;7,1;ppm;INAA;2,24;ppm;INAA;0,73;ppm;INAA;;;;0,51;ppm;INAA;;;;;;;;;;;;;2,75;ppm;INAA;0,4;ppm;INAA;0,03;ppm;TITR;0,02;ppm;INAA;0;ppm;INAA;;;;;;;;;;;;;;;;;;;;;;;;;9,1;ppm;INAA;6;ppm;ES;114;ppm;Unknown;;;;;;;;;;;;;48;ppm;Unknown;350;ppm;Unknown;0,69;ppm;INAA;106;ppm;Unknown;;;;;;;1,5;ppm;INAA;;;;;;;;;;;;;;;;;;;;;;2,7;ppm;ICP;141;ppm;Unknown;;;;;;;;;;11;ppm;Unknown;11;ppm;Unknown;7;ppm;Unknown;;;;;;;2;ppm;ICPMS;0,05;ppm;INAA;;;;45;ppm;INAA;;;;149;ppm;Unknown;0,2;ppm;INAA;0,75;ppm;INAA;;;;;;;;;;;;;;;;27;ppm;Unknown;86;ppm;Unknown;69;ppm;Unknown;;;;;;;;;;;;;;;;;;;;;;;;;;;;;;;;;;0,25;wt%;TITR;0,89;wt%;TITR;0,25;wt%;TITR;0,89;wt%;TITR;;;
GROSCAMP-W-241910;;GROSSMAN-CAMP;GROSSMAN, 1991;39,0083;-77,5653;0,001;;;CONTINENTAL_RIFT;;;;"AAS; COL; ES; ICP; INAA; TITR; Unknown";WHOLE ROCK;IGNEOUS:VOLCANIC:MAFIC;DIABASE;;50,5;wt%;COL;3,47;wt%;COL;11,3;wt%;COL;;;;4,49;wt%;Unknown;;;;14,1;wt%;TITR;;;;;;;0,26;wt%;AAS;2,99;wt%;AAS;8,4;wt%;Unknown;;;;2,57;wt%;Unknown;1,04;wt%;AAS;0,57;wt%;COL;;;;;;;;;;0,32;wt%;TITR;0,88;wt%;TITR;;;;;;;;;;7;ppm;Unknown;55;ppm;Unknown;470;ppm;Unknown;;;;113;ppm;Unknown;2,5;ppm;INAA;;;;0,06;ppm;INAA;;;;;;;;;;;;;;;;;;;;;;;;;;;;;;;;;;;;;;;;;;;;;;;;;;;;;;;;;;;;;;;;;;;;;;;;;;;;;;;;;;;;;;;;;;;;;;;;;;;;;;;;;;;;;;;;;;;;;;;;;22;ppm;INAA;47;ppm;INAA;;;;26;ppm;INAA;6,8;ppm;INAA;2,14;ppm;INAA;;;;1,3;ppm;INAA;;;;;;;;;;;;;4;ppm;INAA;0,57;ppm;INAA;0,04;ppm;TITR;0,06;ppm;INAA;0,03;ppm;INAA;;;;;;;;;;;;;;;;;;;;;;2,5;ppm;INAA;9,5;ppm;INAA;13;ppm;ES;245;ppm;Unknown;;;;;;;;;;;;;55;ppm;Unknown;3,9;ppm;Unknown;4,5;ppm;INAA;470;ppm;Unknown;;;;;;;4,6;ppm;INAA;;;;;;;;;;;;;;;;;;;;;;18;ppm;ICP;7;ppm;Unknown;;;;;;;;;;8,3;ppm;Unknown;2,6;ppm;Unknown;44;ppm;Unknown;;;;;;;;;;0,06;ppm;INAA;;;;41;ppm;INAA;;;;195;ppm;Unknown;1,3;ppm;INAA;4,1;ppm;INAA;;;;;;;0,82;ppm;INAA;;;;;;;51;ppm;Unknown;113;ppm;Unknown;165;ppm;Unknown;;;;;;;;;;;;;;;;;;;;;;;;;2,5;ppm;INAA;2,5;ppm;INAA;;;;0,32;wt%;TITR;0,88;wt%;TITR;0,32;wt%;TITR;0,88;wt%;TITR;;;
GROSCAMP-W-241911;;GROSSMAN-CAMP;GROSSMAN, 1991;39,0083;-77,5653;0,001;;;CONTINENTAL_RIFT;;;;"AAS; COL; ES; ICP; INAA; TITR; Unknown";WHOLE ROCK;IGNEOUS:VOLCANIC:MAFIC;DIABASE;;51,1;wt%;COL;3,69;wt%;COL;11,7;wt%;COL;;;;4,89;wt%;Unknown;;;;13,1;wt%;TITR;;;;;;;0,23;wt%;AAS;3,37;wt%;AAS;8,51;wt%;Unknown;;;;2,67;wt%;Unknown;1,04;wt%;AAS;0,23;wt%;COL;;;;;;;;;;0,17;wt%;TITR;0,29;wt%;TITR;;;;;;;;;;24;ppm;Unknown;55;ppm;Unknown;197;ppm;Unknown;;;;109;ppm;Unknown;;;;;;;0,02;ppm;INAA;;;;;;;;;;;;;;;;;;;;;;;;;;;;;;;;;;;;;;;;;;;;;;;;;;;;;;;;;;;;;;;;;;;;;;;;;;;;;;;;;;;;;;;;;;;;;;;;;;;;;;;;;;;;;;;;;;;;;;;;;19,7;ppm;INAA;41;ppm;INAA;;;;20;ppm;INAA;5,8;ppm;INAA;1,85;ppm;INAA;;;;1,2;ppm;INAA;;;;;;;;;;;;;3,9;ppm;INAA;0,54;ppm;INAA;0,03;ppm;TITR;0,03;ppm;INAA;0,06;ppm;INAA;;;;;;;;;;;;;;;;;;;;;;;;;140;ppm;INAA;11;ppm;ES;250;ppm;Unknown;;;;;;;;;;;;;55;ppm;Unknown;2,7;ppm;Unknown;1,9;ppm;INAA;197;ppm;Unknown;;;;;;;4,7;ppm;INAA;;;;;;;;;;;;;;;;;;;;;;17;ppm;ICP;24;ppm;Unknown;;;;;;;;;;290;ppm;Unknown;23;ppm;Unknown;42;ppm;Unknown;;;;;;;;;;0,02;ppm;INAA;0,27;ppm;INAA;47;ppm;INAA;;;;201;ppm;Unknown;1,3;ppm;INAA;4,2;ppm;INAA;;;;;;;0,98;ppm;INAA;;;;;;;49;ppm;Unknown;109;ppm;Unknown;163;ppm;Unknown;;;;;;;;;;;;;;;;;;;;;;;;;;;;;;;;;;0,17;wt%;TITR;0,29;wt%;TITR;0,17;wt%;TITR;0,29;wt%;TITR;;;
GROSCAMP-W-241912;;GROSSMAN-CAMP;GROSSMAN, 1991;39,0083;-77,5653;0,001;;;CONTINENTAL_RIFT;;;;"AAS; COL; ES; ICP; INAA; TITR; Unknown";WHOLE ROCK;IGNEOUS:VOLCANIC:MAFIC;DIABASE;;53,8;wt%;COL;2,4;wt%;COL;13,9;wt%;COL;;;;3,5;wt%;Unknown;;;;11;wt%;TITR;;;;;;;0,21;wt%;AAS;2,43;wt%;AAS;8,04;wt%;Unknown;;;;2,95;wt%;Unknown;1,48;wt%;AAS;0,29;wt%;COL;;;;;;;;;;0,15;wt%;TITR;0,95;wt%;TITR;;;;;;;;;;5;ppm;Unknown;42;ppm;Unknown;181;ppm;Unknown;;;;93;ppm;Unknown;2,5;ppm;INAA;;;;0,06;ppm;INAA;;;;;;;;;;;;;;;;;;;;;;;;;;;;;;;;;;;;;;;;;;;;;;;;;;;;;;;;;;;;;;;;;;;;;;;;;;;;;;;;;;;;;;;;;;;;;;;;;;;;;;;;;;;;;;;;;;;;;;;;;23,9;ppm;INAA;50;ppm;INAA;;;;26;ppm;INAA;6,8;ppm;INAA;2,03;ppm;INAA;;;;1,2;ppm;INAA;;;;;;;;;;;;;4,2;ppm;INAA;0,58;ppm;INAA;0,04;ppm;TITR;0,04;ppm;INAA;0,18;ppm;INAA;;;;;;;;;;;;;;;;;;;;;;2,5;ppm;INAA;;;;17;ppm;ES;350;ppm;Unknown;;;;;;;;;;;;;42;ppm;Unknown;1,9;ppm;Unknown;3,2;ppm;INAA;181;ppm;Unknown;;;;;;;5,3;ppm;INAA;;;;;;;;;;;;;;;;;;;;;;16;ppm;ICP;5;ppm;Unknown;;;;;;;;;;20;ppm;Unknown;5;ppm;Unknown;61;ppm;Unknown;;;;;;;;;;0,06;ppm;INAA;0,31;ppm;INAA;34;ppm;INAA;;;;245;ppm;Unknown;1,1;ppm;INAA;5,2;ppm;INAA;;;;;;;1,1;ppm;INAA;;;;;;;46;ppm;Unknown;93;ppm;Unknown;183;ppm;Unknown;;;;;;;;;;;;;;;;;;;;;;;;;2,5;ppm;INAA;2,5;ppm;INAA;;;;0,15;wt%;TITR;0,95;wt%;TITR;0,15;wt%;TITR;0,95;wt%;TITR;;;
GROSCAMP-W-241913;;GROSSMAN-CAMP;GROSSMAN, 1991;39,0083;-77,5653;0,001;;;CONTINENTAL_RIFT;;;;"AAS; COL; ES; ICP; INAA; TITR; Unknown";WHOLE ROCK;IGNEOUS:VOLCANIC:MAFIC;DIABASE;;53,4;wt%;COL;2,5;wt%;COL;12,9;wt%;COL;;;;3,34;wt%;Unknown;;;;11,4;wt%;TITR;;;;;;;0,21;wt%;AAS;2,71;wt%;AAS;6,59;wt%;Unknown;;;;3,68;wt%;Unknown;1,6;wt%;AAS;0,27;wt%;COL;;;;;;;;;;0,18;wt%;TITR;1,8;wt%;TITR;;;;;;;;;;19;ppm;Unknown;44;ppm;Unknown;138;ppm;Unknown;;;;93;ppm;Unknown;;;;;;;0,02;ppm;INAA;;;;;;;;;;;;;;;;;;;;;;;;;;;;;;;;;;;;;;;;;;;;;;;;;;;;;;;;;;;;;;;;;;;;;;;;;;;;;;;;;;;;;;;;;;;;;;;;;;;;;;;;;;;;;;;;;;;;;;;;;23,4;ppm;INAA;49;ppm;INAA;;;;25;ppm;INAA;6,6;ppm;INAA;1,68;ppm;INAA;;;;1,23;ppm;INAA;;;;;;;;;;;;;3,9;ppm;INAA;0,53;ppm;INAA;0,02;ppm;TITR;0,04;ppm;INAA;0,15;ppm;INAA;;;;;;;;;;;;;;;;;;;;;;;;;14;ppm;INAA;14;ppm;ES;360;ppm;Unknown;;;;;;;;;;;;;44;ppm;Unknown;;;;0,92;ppm;INAA;138;ppm;Unknown;;;;;;;5,4;ppm;INAA;;;;;;;;;;;;;;;;;;;;;;16;ppm;ICP;19;ppm;Unknown;;;;;;;;;;13;ppm;Unknown;4,2;ppm;Unknown;60;ppm;Unknown;;;;;;;;;;0,02;ppm;INAA;0,27;ppm;INAA;33;ppm;INAA;;;;280;ppm;Unknown;1,2;ppm;INAA;5,3;ppm;INAA;;;;;;;0,94;ppm;INAA;;;;;;;43;ppm;Unknown;93;ppm;Unknown;213;ppm;Unknown;;;;;;;;;;;;;;;;;;;;;;;;;;;;;;;;;;0,18;wt%;TITR;1,8;wt%;TITR;0,18;wt%;TITR;1,8;wt%;TITR;;;
GROSCAMP-W-241914;;GROSSMAN-CAMP;GROSSMAN, 1991;39,0169;-77,565;0,001;;;CONTINENTAL_RIFT;;;;"AAS; COL; ES; ICP; INAA; TITR; Unknown";WHOLE ROCK;IGNEOUS:VOLCANIC:MAFIC;DIABASE;;49;wt%;COL;4,79;wt%;COL;9,88;wt%;COL;;;;4,89;wt%;Unknown;;;;15,8;wt%;TITR;;;;;;;0,29;wt%;AAS;3,74;wt%;AAS;8,75;wt%;Unknown;;;;2,17;wt%;Unknown;1,05;wt%;AAS;0,23;wt%;COL;;;;;;;;;;0,19;wt%;TITR;0,75;wt%;TITR;;;;;;;;;;19;ppm;Unknown;63;ppm;Unknown;235;ppm;Unknown;;;;113;ppm;Unknown;4;ppm;INAA;;;;0,04;ppm;INAA;;;;;;;;;;;;;;;;;;;;;;;;;;;;;;;;;;;;;;;;;;;;;;;;;;;;;;;;;;;;;;;;;;;;;;;;;;;;;;;;;;;;;;;;;;;;;;;;;;;;;;;;;;;;;;;;;;;;;;;;;18,8;ppm;INAA;41;ppm;INAA;;;;21;ppm;INAA;6,2;ppm;INAA;1,76;ppm;INAA;;;;1,3;ppm;INAA;;;;;;;;;;;;;4,5;ppm;INAA;0,64;ppm;INAA;0,02;ppm;TITR;0,04;ppm;INAA;0,2;ppm;INAA;;;;;;;;;;;;;;;;;;;;;;4;ppm;INAA;21;ppm;INAA;17;ppm;ES;261;ppm;Unknown;;;;;;;;;;;;;63;ppm;Unknown;2,4;ppm;Unknown;2,6;ppm;INAA;235;ppm;Unknown;;;;;;;5,1;ppm;INAA;;;;;;;;;;;;;;;;;;;;;;24;ppm;ICP;19;ppm;Unknown;;;;;;;;;;130;ppm;Unknown;15;ppm;Unknown;53;ppm;Unknown;;;;;;;;;;0,04;ppm;INAA;0,27;ppm;INAA;54;ppm;INAA;;;;174;ppm;Unknown;1,7;ppm;INAA;4;ppm;INAA;;;;;;;0,73;ppm;INAA;;;;;;;41;ppm;Unknown;113;ppm;Unknown;169;ppm;Unknown;;;;;;;;;;;;;;;;;;;;;;;;;4;ppm;INAA;4;ppm;INAA;;;;0,19;wt%;TITR;0,75;wt%;TITR;0,19;wt%;TITR;0,75;wt%;TITR;;;
GROSCAMP-W-241915;;GROSSMAN-CAMP;GROSSMAN, 1991;39,0169;-77,565;0,001;;;CONTINENTAL_RIFT;;;;"AAS; COL; ES; ICP; INAA; TITR; Unknown";WHOLE ROCK;IGNEOUS:VOLCANIC:MAFIC;DIABASE;;52,8;wt%;COL;2,85;wt%;COL;12,1;wt%;COL;;;;4,31;wt%;Unknown;;;;12,2;wt%;TITR;;;;;;;0,24;wt%;AAS;2,92;wt%;AAS;8,06;wt%;Unknown;;;;2,71;wt%;Unknown;1,39;wt%;AAS;0,25;wt%;COL;;;;;;;;;;0,24;wt%;TITR;0,96;wt%;TITR;;;;;;;;;;15;ppm;Unknown;48;ppm;Unknown;179;ppm;Unknown;;;;149;ppm;Unknown;;;;;;;0,05;ppm;INAA;;;;;;;;;;;;;;;;;;;;;;;;;;;;;;;;;;;;;;;;;;;;;;;;;;;;;;;;;;;;;;;;;;;;;;;;;;;;;;;;;;;;;;;;;;;;;;;;;;;;;;;;;;;;;;;;;;;;;;;;;23,2;ppm;INAA;48;ppm;INAA;;;;25;ppm;INAA;6,6;ppm;INAA;1,87;ppm;INAA;;;;1,3;ppm;INAA;;;;;;;;;;;;;4,3;ppm;INAA;0,58;ppm;INAA;0,06;ppm;TITR;0,03;ppm;INAA;0,22;ppm;INAA;;;;;;;;;;;;;;;;;;;;;;;;;11;ppm;INAA;24;ppm;ES;330;ppm;Unknown;;;;;;;;;;;;;48;ppm;Unknown;2,8;ppm;Unknown;3,5;ppm;INAA;179;ppm;Unknown;;;;;;;5,3;ppm;INAA;;;;;;;;;;;;;;;;;;;;;;18;ppm;ICP;15;ppm;Unknown;;;;;;;;;;9,4;ppm;Unknown;3,5;ppm;Unknown;53;ppm;Unknown;;;;;;;;;;0,05;ppm;INAA;0,25;ppm;INAA;38;ppm;INAA;;;;202;ppm;Unknown;1,3;ppm;INAA;5,1;ppm;INAA;;;;;;;1,2;ppm;INAA;;;;;;;52;ppm;Unknown;149;ppm;Unknown;198;ppm;Unknown;;;;;;;;;;;;;;;;;;;;;;;;;;;;;;;;;;0,24;wt%;TITR;0,96;wt%;TITR;0,24;wt%;TITR;0,96;wt%;TITR;;;
GROSCAMP-W-241916;;GROSSMAN-CAMP;GROSSMAN, 1991;39,0169;-77,565;0,001;;;CONTINENTAL_RIFT;;;;"AAS; COL; ES; ICP; INAA; TITR; Unknown";WHOLE ROCK;IGNEOUS:VOLCANIC:MAFIC;DIABASE;;53;wt%;COL;2,48;wt%;COL;13,8;wt%;COL;;;;3,9;wt%;Unknown;;;;10,9;wt%;TITR;;;;;;;0,22;wt%;AAS;2,59;wt%;AAS;8,21;wt%;Unknown;;;;2,87;wt%;Unknown;1,37;wt%;AAS;0,26;wt%;COL;;;;;;;;;;0,15;wt%;TITR;0,95;wt%;TITR;;;;;;;;;;9;ppm;Unknown;42;ppm;Unknown;180;ppm;Unknown;;;;141;ppm;Unknown;2,9;ppm;INAA;;;;0,04;ppm;INAA;;;;;;;;;;;;;;;;;;;;;;;;;;;;;;;;;;;;;;;;;;;;;;;;;;;;;;;;;;;;;;;;;;;;;;;;;;;;;;;;;;;;;;;;;;;;;;;;;;;;;;;;;;;;;;;;;;;;;;;;;21,3;ppm;INAA;44;ppm;INAA;;;;23;ppm;INAA;6;ppm;INAA;1,92;ppm;INAA;;;;1,15;ppm;INAA;;;;;;;;;;;;;3,7;ppm;INAA;0,54;ppm;INAA;0,03;ppm;TITR;0,04;ppm;INAA;0,29;ppm;INAA;;;;;;;;;;;;;;;;;;;;;;2,9;ppm;INAA;;;;22;ppm;ES;310;ppm;Unknown;;;;;;;;;;;;;42;ppm;Unknown;1,8;ppm;Unknown;2,3;ppm;INAA;180;ppm;Unknown;;;;;;;4,9;ppm;INAA;;;;;;;;;;;;;;;;;;;;;;16;ppm;ICP;9;ppm;Unknown;;;;;;;;;;21;ppm;Unknown;5;ppm;Unknown;50;ppm;Unknown;;;;;;;;;;0,04;ppm;INAA;0,33;ppm;INAA;34;ppm;INAA;;;;246;ppm;Unknown;1,2;ppm;INAA;4,3;ppm;INAA;;;;;;;0,93;ppm;INAA;;;;;;;39;ppm;Unknown;141;ppm;Unknown;157;ppm;Unknown;;;;;;;;;;;;;;;;;;;;;;;;;2,9;ppm;INAA;2,9;ppm;INAA;;;;0,15;wt%;TITR;0,95;wt%;TITR;0,15;wt%;TITR;0,95;wt%;TITR;;;
GROSCAMP-W-241917;;GROSSMAN-CAMP;GROSSMAN, 1991;39,0169;-77,565;0,001;;;CONTINENTAL_RIFT;;;;"AAS; COL; ES; ICP; INAA; TITR; Unknown";WHOLE ROCK;IGNEOUS:VOLCANIC:MAFIC;DIABASE;;53;wt%;COL;2,33;wt%;COL;15;wt%;COL;;;;3,31;wt%;Unknown;;;;10,4;wt%;TITR;;;;;;;0,19;wt%;AAS;2,61;wt%;AAS;8,32;wt%;Unknown;;;;3,15;wt%;Unknown;1,38;wt%;AAS;0,2;wt%;COL;;;;;;;;;;0,09;wt%;TITR;1,1;wt%;TITR;;;;;;;;;;11;ppm;Unknown;41;ppm;Unknown;98;ppm;Unknown;;;;90;ppm;Unknown;;;;;;;0,04;ppm;INAA;;;;;;;;;;;;;;;;;;;;;;;;;;;;;;;;;;;;;;;;;;;;;;;;;;;;;;;;;;;;;;;;;;;;;;;;;;;;;;;;;;;;;;;;;;;;;;;;;;;;;;;;;;;;;;;;;;;;;;;;;20;ppm;INAA;41;ppm;INAA;;;;21;ppm;INAA;5,6;ppm;INAA;1,77;ppm;INAA;;;;1,07;ppm;INAA;;;;;;;;;;;;;3,6;ppm;INAA;0,49;ppm;INAA;0,02;ppm;TITR;0,03;ppm;INAA;0,23;ppm;INAA;;;;;;;;;;;;;;;;;;;;;;;;;7,3;ppm;INAA;9,6;ppm;ES;330;ppm;Unknown;;;;;;;;;;;;;41;ppm;Unknown;2;ppm;Unknown;1,1;ppm;INAA;98;ppm;Unknown;;;;;;;4,5;ppm;INAA;;;;;;;;;;;;;;;;;;;;;;15;ppm;ICP;11;ppm;Unknown;;;;;;;;;;18;ppm;Unknown;4,6;ppm;Unknown;69;ppm;Unknown;;;;;;;;;;0,04;ppm;INAA;0,22;ppm;INAA;32;ppm;INAA;;;;310;ppm;Unknown;1;ppm;INAA;4;ppm;INAA;;;;;;;;;;;;;;;;46;ppm;Unknown;90;ppm;Unknown;167;ppm;Unknown;;;;;;;;;;;;;;;;;;;;;;;;;;;;;;;;;;0,09;wt%;TITR;1,1;wt%;TITR;0,09;wt%;TITR;1,1;wt%;TITR;;;
GROSCAMP-W-241918;;GROSSMAN-CAMP;GROSSMAN, 1991;39,0169;-77,565;0,001;;;CONTINENTAL_RIFT;;;;"AAS; COL; ICP; INAA; TITR; Unknown";WHOLE ROCK;IGNEOUS:VOLCANIC:MAFIC;DIABASE;;52,4;wt%;COL;2,36;wt%;COL;15,3;wt%;COL;;;;3,69;wt%;Unknown;;;;8,4;wt%;TITR;;;;;;;0,16;wt%;AAS;2,51;wt%;AAS;8,98;wt%;Unknown;;;;3,75;wt%;Unknown;1,69;wt%;AAS;0,2;wt%;COL;;;;;;;;;;0,07;wt%;TITR;1;wt%;TITR;;;;;;;;;;15;ppm;Unknown;36;ppm;Unknown;107;ppm;Unknown;;;;153;ppm;Unknown;3,3;ppm;INAA;;;;0,03;ppm;INAA;;;;;;;;;;;;;;;;;;;;;;;;;;;;;;;;;;;;;;;;;;;;;;;;;;;;;;;;;;;;;;;;;;;;;;;;;;;;;;;;;;;;;;;;;;;;;;;;;;;;;;;;;;;;;;;;;;;;;;;;;17,9;ppm;INAA;37;ppm;INAA;;;;19;ppm;INAA;5,5;ppm;INAA;1,75;ppm;INAA;;;;1,07;ppm;INAA;;;;;;;;;;;;;3,5;ppm;INAA;0,49;ppm;INAA;0,02;ppm;TITR;0,05;ppm;INAA;0,15;ppm;INAA;;;;;;;;;;;;;;;;;;;;;;3,3;ppm;INAA;8,1;ppm;INAA;;;;310;ppm;Unknown;;;;;;;;;;;;;36;ppm;Unknown;3,6;ppm;Unknown;0,39;ppm;INAA;107;ppm;Unknown;;;;;;;4,5;ppm;INAA;;;;;;;;;;;;;;;;;;;;;;14;ppm;ICP;15;ppm;Unknown;;;;;;;;;;17;ppm;Unknown;4,4;ppm;Unknown;64;ppm;Unknown;;;;;;;;;;0,03;ppm;INAA;0,21;ppm;INAA;32;ppm;INAA;;;;320;ppm;Unknown;1,1;ppm;INAA;4;ppm;INAA;;;;;;;1,2;ppm;INAA;;;;;;;33;ppm;Unknown;153;ppm;Unknown;166;ppm;Unknown;;;;;;;;;;;;;;;;;;;;;;;;;3,3;ppm;INAA;3,3;ppm;INAA;;;;0,07;wt%;TITR;1;wt%;TITR;0,07;wt%;TITR;1;wt%;TITR;;;
GROSCAMP-W-241919;;GROSSMAN-CAMP;GROSSMAN, 1991;39,0169;-77,565;0,001;;;CONTINENTAL_RIFT;;;;"AAS; COL; ICP; INAA; TITR; Unknown";WHOLE ROCK;IGNEOUS:VOLCANIC:MAFIC;DIABASE;;52,2;wt%;COL;2,23;wt%;COL;15,4;wt%;COL;;;;3,1;wt%;Unknown;;;;8,4;wt%;TITR;;;;;;;0,17;wt%;AAS;2,6;wt%;AAS;9,67;wt%;Unknown;;;;3,79;wt%;Unknown;1,55;wt%;AAS;0,19;wt%;COL;;;;;;;;;;0,14;wt%;TITR;1,1;wt%;TITR;;;;;;;;;;19;ppm;Unknown;39;ppm;Unknown;132;ppm;Unknown;;;;99;ppm;Unknown;3,3;ppm;INAA;;;;0,04;ppm;INAA;;;;;;;;;;;;;;;;;;;;;;;;;;;;;;;;;;;;;;;;;;;;;;;;;;;;;;;;;;;;;;;;;;;;;;;;;;;;;;;;;;;;;;;;;;;;;;;;;;;;;;;;;;;;;;;;;;;;;;;;;17,7;ppm;INAA;37;ppm;INAA;;;;19;ppm;INAA;5,2;ppm;INAA;1,73;ppm;INAA;;;;1,01;ppm;INAA;;;;;;;;;;;;;3,3;ppm;INAA;0,46;ppm;INAA;0,02;ppm;TITR;0,03;ppm;INAA;0,17;ppm;INAA;;;;;;;;;;;;;;;;;;;;;;3,3;ppm;INAA;;;;;;;273;ppm;Unknown;;;;;;;;;;;;;39;ppm;Unknown;3;ppm;Unknown;0,47;ppm;INAA;132;ppm;Unknown;;;;;;;4;ppm;INAA;;;;;;;;;;;;;;;;;;;;;;15;ppm;ICP;19;ppm;Unknown;;;;;;;;;;18;ppm;Unknown;3,5;ppm;Unknown;68;ppm;Unknown;;;;;;;;;;0,04;ppm;INAA;0,21;ppm;INAA;32;ppm;INAA;;;;340;ppm;Unknown;0,89;ppm;INAA;3,7;ppm;INAA;;;;;;;0,64;ppm;INAA;;;;;;;43;ppm;Unknown;99;ppm;Unknown;150;ppm;Unknown;;;;;;;;;;;;;;;;;;;;;;;;;3,3;ppm;INAA;3,3;ppm;INAA;;;;0,14;wt%;TITR;1,1;wt%;TITR;0,14;wt%;TITR;1,1;wt%;TITR;;;