SAMPLE ID;IGSN;EXPEDITION ID;REFERENCES;LATITUDE;LONGITUDE;LOC PREC;MIN ELEVATION;MAX ELEVATION;TECTONIC SETTING;MIN AGE;AGE;MAX AGE;METHOD;ANALYZED MATERIAL;ROCK TYPE;ROCK NAME;MINERAL;SIO2;SIO2 Units;SIO2 Method;TIO2;TIO2 Units;TIO2 Method;AL2O3;AL2O3 Units;AL2O3 Method;CR2O3;CR2O3 Units;CR2O3 Method;FE2O3;FE2O3 Units;FE2O3 Method;FE2O3T;FE2O3T Units;FE2O3T Method;FEO;FEO Units;FEO Method;FEOT;FEOT Units;FEOT Method;NIO;NIO Units;NIO Method;MNO;MNO Units;MNO Method;MGO;MGO Units;MGO Method;CAO;CAO Units;CAO Method;SRO;SRO Units;SRO Method;NA2O;NA2O Units;NA2O Method;K2O;K2O Units;K2O Method;P2O5;P2O5 Units;P2O5 Method;BAO;BAO Units;BAO Method;LOI;LOI Units;LOI Method;H2O;H2O Units;H2O Method;H2O_M;H2O_M Units;H2O_M Method;H2O_P;H2O_P Units;H2O_P Method;SO3;SO3 Units;SO3 Method;COO;COO Units;COO Method;MN;MN Units;MN Method;NI;NI Units;NI Method;CO;CO Units;CO Method;CU;CU Units;CU Method;CD;CD Units;CD Method;ZN;ZN Units;ZN Method;AS;AS Units;AS Method;AG;AG Units;AG Method;S;S Units;S Method;ZRO2;ZRO2 Units;ZRO2 Method;AL;AL Units;AL Method;CA;CA Units;CA Method;SR87_SR86;SR87_SR86 Units;SR87_SR86 Method;SR87_SR86_INI;SR87_SR86_INI Units;SR87_SR86_INI Method;RB87_SR86;RB87_SR86 Units;RB87_SR86 Method;ND143_ND144;ND143_ND144 Units;ND143_ND144 Method;ND143_ND144_INI;ND143_ND144_INI Units;ND143_ND144_INI Method;SM147_ND144;SM147_ND144 Units;SM147_ND144 Method;E_ND;E_ND Units;E_ND Method;E_ND_INI;E_ND_INI Units;E_ND_INI Method;PB204_PB206;PB204_PB206 Units;PB204_PB206 Method;PB206_PB204;PB206_PB204 Units;PB206_PB204 Method;PB206_PB204_INI;PB206_PB204_INI Units;PB206_PB204_INI Method;PB207_PB204;PB207_PB204 Units;PB207_PB204 Method;PB207_PB204_INI;PB207_PB204_INI Units;PB207_PB204_INI Method;PB207_PB206;PB207_PB206 Units;PB207_PB206 Method;PB208_PB204;PB208_PB204 Units;PB208_PB204 Method;PB208_PB204_INI;PB208_PB204_INI Units;PB208_PB204_INI Method;PB208_PB206;PB208_PB206 Units;PB208_PB206 Method;HF176_HF177;HF176_HF177 Units;HF176_HF177 Method;RE187_OS188;RE187_OS188 Units;RE187_OS188 Method;OS187_OS188;OS187_OS188 Units;OS187_OS188 Method;OS187_OS188_INI;OS187_OS188_INI Units;OS187_OS188_INI Method;G_OS;G_OS Units;G_OS Method;G_OS_INI;G_OS_INI Units;G_OS_INI Method;ND143_ND144_INI;ND143_ND144_INI Units;ND143_ND144_INI Method;PB206_PB204_INI;PB206_PB204_INI Units;PB206_PB204_INI Method;PB207_PB204_INI;PB207_PB204_INI Units;PB207_PB204_INI Method;PB208_PB204_INI;PB208_PB204_INI Units;PB208_PB204_INI Method;SR87_SR86_INI;SR87_SR86_INI Units;SR87_SR86_INI Method;HE;HE Units;HE Method;HE3;HE3 Units;HE3 Method;HE3_HE4_R_RA;HE3_HE4_R_RA Units;HE3_HE4_R_RA Method;AR36;AR36 Units;AR36 Method;AR40;AR40 Units;AR40 Method;AR40_AR36;AR40_AR36 Units;AR40_AR36 Method;NE20;NE20 Units;NE20 Method;NE20_NE22;NE20_NE22 Units;NE20_NE22 Method;NE21_NE22;NE21_NE22 Units;NE21_NE22 Method;LA;LA Units;LA Method;CE;CE Units;CE Method;PR;PR Units;PR Method;ND;ND Units;ND Method;SM;SM Units;SM Method;EU;EU Units;EU Method;GD;GD Units;GD Method;TB;TB Units;TB Method;DY;DY Units;DY Method;HO;HO Units;HO Method;ER;ER Units;ER Method;TM;TM Units;TM Method;YB;YB Units;YB Method;LU;LU Units;LU Method;CO2;CO2 Units;CO2 Method;F;F Units;F Method;CL;CL Units;CL Method;U238_PB204;U238_PB204 Units;U238_PB204 Method;TH230_TH232;TH230_TH232 Units;TH230_TH232 Method;RA226_ACTIVITY;RA226_ACTIVITY Units;RA226_ACTIVITY Method;PB210_RA226;PB210_RA226 Units;PB210_RA226 Method;PB210_ACTIVITY;PB210_ACTIVITY Units;PB210_ACTIVITY Method;AG;AG Units;AG Method;AL;AL Units;AL Method;AS;AS Units;AS Method;AU;AU Units;AU Method;B;B Units;B Method;BA;BA Units;BA Method;BE;BE Units;BE Method;BI;BI Units;BI Method;CA;CA Units;CA Method;CD;CD Units;CD Method;CO;CO Units;CO Method;CR;CR Units;CR Method;CS;CS Units;CS Method;CU;CU Units;CU Method;GA;GA Units;GA Method;GER;GER Units;GER Method;HF;HF Units;HF Method;INDIUM;INDIUM Units;INDIUM Method;IR;IR Units;IR Method;K;K Units;K Method;LI;LI Units;LI Method;MN;MN Units;MN Method;MO;MO Units;MO Method;NA;NA Units;NA Method;NB;NB Units;NB Method;NI;NI Units;NI Method;OS;OS Units;OS Method;P;P Units;P Method;PB;PB Units;PB Method;PD;PD Units;PD Method;PT;PT Units;PT Method;RB;RB Units;RB Method;RE;RE Units;RE Method;RH;RH Units;RH Method;RU;RU Units;RU Method;S;S Units;S Method;SB;SB Units;SB Method;SC;SC Units;SC Method;SN;SN Units;SN Method;SR;SR Units;SR Method;TA;TA Units;TA Method;TH;TH Units;TH Method;TI;TI Units;TI Method;TL;TL Units;TL Method;U;U Units;U Method;V;V Units;V Method;W;W Units;W Method;Y;Y Units;Y Method;ZN;ZN Units;ZN Method;ZR;ZR Units;ZR Method;DELTA_O18;DELTA_O18 Units;DELTA_O18 Method;DELTA_C13;DELTA_C13 Units;DELTA_C13 Method;DELTA_MO98;DELTA_MO98 Units;DELTA_MO98 Method;DELTA_ZN66;DELTA_ZN66 Units;DELTA_ZN66 Method;DELTA_ZN68;DELTA_ZN68 Units;DELTA_ZN68 Method;OS188;OS188 Units;OS188 Method;FE3P_FET;FE3P_FET Units;FE3P_FET Method;TI;TI Units;TI Method;AS;AS Units;AS Method;AS;AS Units;AS Method;GER;GER Units;GER Method;H2O_M;H2O_M Units;H2O_M Method;H2O_P;H2O_P Units;H2O_P Method;H2O_M;H2O_M Units;H2O_M Method;H2O_P;H2O_P Units;H2O_P Method;INDIUM;INDIUM Units;INDIUM Method
GROSCAMP-W-243832;;GROSSMAN-CAMP;GROSSMAN, 1991;38,8083;-77,6542;0,001;;;CONTINENTAL_RIFT;;;;"AAS; COL; ES; ICP; INAA; TITR; Unknown";WHOLE ROCK;IGNEOUS:VOLCANIC:MAFIC;DIABASE;;46,4;wt%;COL;0,39;wt%;COL;16,6;wt%;COL;;;;2,83;wt%;Unknown;;;;6,4;wt%;TITR;;;;;;;0,18;wt%;AAS;9,5;wt%;AAS;9,37;wt%;Unknown;;;;2,44;wt%;Unknown;1,04;wt%;AAS;0,08;wt%;COL;;;;;;;;;;0,58;wt%;TITR;3,5;wt%;TITR;;;;;;;;;;275;ppm;Unknown;53;ppm;Unknown;64;ppm;Unknown;;;;74;ppm;Unknown;;;;;;;0,08;ppm;INAA;;;;;;;;;;;;;;;;;;;;;;;;;;;;;;;;;;;;;;;;;;;;;;;;;;;;;;;;;;;;;;;;;;;;;;;;;;;;;;;;;;;;;;;;;;;;;;;;;;;;;;;;;;;;;;;;;;;;;;;;;4,2;ppm;INAA;15;ppm;INAA;;;;4,9;ppm;INAA;1,31;ppm;INAA;0,42;ppm;INAA;;;;0,3;ppm;INAA;;;;;;;;;;;;;1,5;ppm;INAA;0,23;ppm;INAA;0,24;ppm;TITR;0,01;ppm;INAA;0,02;ppm;INAA;;;;;;;;;;;;;;;;;;;;;;;;;6,9;ppm;INAA;24,2;ppm;ES;320;ppm;Unknown;;;;;;;;;;;;;53;ppm;Unknown;2160;ppm;Unknown;0,67;ppm;INAA;64;ppm;Unknown;14;ppm;ICP;;;;0,75;ppm;INAA;;;;;;;;;;;;;;;;;;;;;;2,2;ppm;ICP;275;ppm;Unknown;;;;;;;;;;;;;;;;37;ppm;Unknown;;;;;;;;;;0,08;ppm;INAA;;;;33;ppm;INAA;;;;430;ppm;Unknown;0,18;ppm;INAA;0,61;ppm;INAA;;;;;;;;;;;;;;;;12;ppm;Unknown;74;ppm;Unknown;50;ppm;Unknown;;;;;;;;;;;;;;;;;;;;;;;;;;;;;;;;;;0,58;wt%;TITR;3,5;wt%;TITR;0,58;wt%;TITR;3,5;wt%;TITR;;;
GROSCAMP-W-243833;;GROSSMAN-CAMP;GROSSMAN, 1991;38,8083;-77,6583;0,001;;;CONTINENTAL_RIFT;;;;"AAS; COL; ES; ICP; INAA; TITR; Unknown";WHOLE ROCK;IGNEOUS:VOLCANIC:MAFIC;DIABASE;;50,6;wt%;COL;0,68;wt%;COL;15,1;wt%;COL;;;;2,67;wt%;Unknown;;;;8,2;wt%;TITR;;;;;;;0,18;wt%;AAS;8,45;wt%;AAS;11,2;wt%;Unknown;;;;2,06;wt%;Unknown;0,31;wt%;AAS;0,1;wt%;COL;;;;;;;;;;0,41;wt%;TITR;0,79;wt%;TITR;;;;;;;;;;82;ppm;Unknown;50;ppm;Unknown;69;ppm;Unknown;;;;70;ppm;Unknown;1,8;ppm;INAA;;;;0,04;ppm;INAA;;;;;;;;;;;;;;;;;;;;;;;;;;;;;;;;;;;;;;;;;;;;;;;;;;;;;;;;;;;;;;;;;;;;;;;;;;;;;;;;;;;;;;;;;;;;;;;;;;;;;;;;;;;;;;;;;;;;;;;;;5,3;ppm;INAA;12;ppm;INAA;;;;7,8;ppm;INAA;1,99;ppm;INAA;0,72;ppm;INAA;;;;0,51;ppm;INAA;;;;;;;;;;;;;2,1;ppm;INAA;0,31;ppm;INAA;0,02;ppm;TITR;0,01;ppm;INAA;0,02;ppm;INAA;;;;;;;;;;;;;;;;;;;;;;1,8;ppm;INAA;;;;5,6;ppm;ES;76;ppm;Unknown;;;;;;;;;;;;;50;ppm;Unknown;235;ppm;Unknown;1,4;ppm;INAA;69;ppm;Unknown;19;ppm;ICP;;;;1,3;ppm;INAA;;;;;;;;;;;;;;;;;;;;;;3;ppm;ICP;82;ppm;Unknown;;;;;;;;;;;;;2,4;ppm;Unknown;20;ppm;Unknown;;;;;;;;;;0,04;ppm;INAA;;;;41;ppm;INAA;;;;139;ppm;Unknown;0,24;ppm;INAA;1,1;ppm;INAA;;;;;;;;;;;;;;;;18;ppm;Unknown;70;ppm;Unknown;60;ppm;Unknown;;;;;;;;;;;;;;;;;;;;;;;;;1,8;ppm;INAA;1,8;ppm;INAA;;;;0,41;wt%;TITR;0,79;wt%;TITR;0,41;wt%;TITR;0,79;wt%;TITR;;;
GROSCAMP-W-243834;;GROSSMAN-CAMP;GROSSMAN, 1991;38,5667;-77,6208;0,001;;;CONTINENTAL_RIFT;;;;"AAS; COL; ES; ICP; INAA; TITR; Unknown";WHOLE ROCK;IGNEOUS:VOLCANIC:MAFIC;DIABASE;;53,1;wt%;COL;1,35;wt%;COL;12,8;wt%;COL;;;;3,87;wt%;Unknown;;;;9,9;wt%;TITR;;;;;;;0,22;wt%;AAS;4,96;wt%;AAS;8,65;wt%;Unknown;;;;2,56;wt%;Unknown;0,74;wt%;AAS;0,16;wt%;COL;;;;;;;;;;0,44;wt%;TITR;1,4;wt%;TITR;;;;;;;;;;29;ppm;Unknown;46;ppm;Unknown;49;ppm;Unknown;;;;90;ppm;Unknown;;;;;;;0,05;ppm;INAA;;;;;;;;;;;;;;;;;;;;;;;;;;;;;;;;;;;;;;;;;;;;;;;;;;;;;;;;;;;;;;;;;;;;;;;;;;;;;;;;;;;;;;;;;;;;;;;;;;;;;;;;;;;;;;;;;;;;;;;;;11,7;ppm;INAA;23;ppm;INAA;;;;14;ppm;INAA;3,6;ppm;INAA;1,1;ppm;INAA;;;;0,71;ppm;INAA;;;;;;;;;;;;;3,3;ppm;INAA;0,49;ppm;INAA;0,05;ppm;TITR;0,02;ppm;INAA;0,01;ppm;INAA;;;;;;;;;;;;;;;;;;;;;;;;;;;;12,1;ppm;ES;137;ppm;Unknown;;;;;;;;;;;;;46;ppm;Unknown;18;ppm;Unknown;0,59;ppm;INAA;49;ppm;Unknown;21;ppm;ICP;;;;2,4;ppm;INAA;;;;;;;;;;;;;;;;;;;;;;6,2;ppm;ICP;29;ppm;Unknown;;;;;;;;;;0,8;ppm;Unknown;1,3;ppm;Unknown;30;ppm;Unknown;;;;;;;;;;0,05;ppm;INAA;0,16;ppm;INAA;51;ppm;INAA;;;;209;ppm;Unknown;0,4;ppm;INAA;2,9;ppm;INAA;;;;;;;0,8;ppm;INAA;;;;;;;28;ppm;Unknown;90;ppm;Unknown;109;ppm;Unknown;;;;;;;;;;;;;;;;;;;;;;;;;;;;;;;;;;0,44;wt%;TITR;1,4;wt%;TITR;0,44;wt%;TITR;1,4;wt%;TITR;;;
GROSCAMP-W-243835;;GROSSMAN-CAMP;GROSSMAN, 1991;38,5667;-77,6208;0,001;;;CONTINENTAL_RIFT;;;;"AAS; COL; ES; ICP; INAA; TITR; Unknown";WHOLE ROCK;IGNEOUS:VOLCANIC:MAFIC;DIABASE;;52,6;wt%;COL;0,95;wt%;COL;14,1;wt%;COL;;;;3,26;wt%;Unknown;;;;9;wt%;TITR;;;;;;;0,21;wt%;AAS;6,49;wt%;AAS;10,4;wt%;Unknown;;;;2,32;wt%;Unknown;0,49;wt%;AAS;0,14;wt%;COL;;;;;;;;;;0,68;wt%;TITR;0,52;wt%;TITR;;;;;;;;;;58;ppm;Unknown;58;ppm;Unknown;80;ppm;Unknown;;;;79;ppm;Unknown;;;;;;;0,03;ppm;INAA;;;;;;;;;;;;;;;;;;;;;;;;;;;;;;;;;;;;;;;;;;;;;;;;;;;;;;;;;;;;;;;;;;;;;;;;;;;;;;;;;;;;;;;;;;;;;;;;;;;;;;;;;;;;;;;;;;;;;;;;;8,6;ppm;INAA;18;ppm;INAA;;;;9,2;ppm;INAA;2,97;ppm;INAA;0,97;ppm;INAA;;;;0,64;ppm;INAA;;;;;;;;;;;;;3;ppm;INAA;0,42;ppm;INAA;0,01;ppm;TITR;0,02;ppm;INAA;;;;;;;;;;;;;;;;;;;;;;;;;;;;;;;14,8;ppm;ES;156;ppm;Unknown;;;;;;;;;;;;;58;ppm;Unknown;88;ppm;Unknown;0,43;ppm;INAA;80;ppm;Unknown;20;ppm;ICP;;;;2;ppm;INAA;;;;;;;;;;;;;;;;;;;;;;5,6;ppm;ICP;58;ppm;Unknown;;;;;;;;;;0,9;ppm;Unknown;3;ppm;Unknown;15;ppm;Unknown;;;;;;;;;;0,03;ppm;INAA;;;;47;ppm;INAA;;;;141;ppm;Unknown;0,34;ppm;INAA;2;ppm;INAA;;;;;;;0,55;ppm;INAA;;;;;;;25;ppm;Unknown;79;ppm;Unknown;88;ppm;Unknown;;;;;;;;;;;;;;;;;;;;;;;;;;;;;;;;;;0,68;wt%;TITR;0,52;wt%;TITR;0,68;wt%;TITR;0,52;wt%;TITR;;;
GROSCAMP-W-243836;;GROSSMAN-CAMP;GROSSMAN, 1991;39,2167;-77,4833;0,001;;;CONTINENTAL_RIFT;;;;"AAS; COL; ES; ICP; INAA; TITR; Unknown";WHOLE ROCK;IGNEOUS:VOLCANIC:MAFIC;DIABASE;;52,2;wt%;COL;1,14;wt%;COL;14;wt%;COL;;;;2,64;wt%;Unknown;;;;8,2;wt%;TITR;;;;;;;0,18;wt%;AAS;7,64;wt%;AAS;10,9;wt%;Unknown;;;;1,94;wt%;Unknown;0,4;wt%;AAS;0,15;wt%;COL;;;;;;;;;;0,2;wt%;TITR;1,1;wt%;TITR;;;;;;;;;;88;ppm;Unknown;48;ppm;Unknown;109;ppm;Unknown;;;;83;ppm;Unknown;;;;;;;0,06;ppm;INAA;;;;;;;;;;;;;;;;;;;;;;;;;;;;;;;;;;;;;;;;;;;;;;;;;;;;;;;;;;;;;;;;;;;;;;;;;;;;;;;;;;;;;;;;;;;;;;;;;;;;;;;;;;;;;;;;;;;;;;;;;11,2;ppm;INAA;25;ppm;INAA;;;;15;ppm;INAA;3,5;ppm;INAA;1,1;ppm;INAA;;;;0,64;ppm;INAA;;;;;;;;;;;;;2,3;ppm;INAA;0,34;ppm;INAA;0,02;ppm;TITR;0,02;ppm;INAA;0,01;ppm;INAA;;;;;;;;;;;;;;;;;;;;;;;;;;;;7;ppm;ES;183;ppm;Unknown;;;;;;;;;;;;;48;ppm;Unknown;296;ppm;Unknown;;;;109;ppm;Unknown;19;ppm;ICP;;;;2,5;ppm;INAA;;;;;;;;;;;;;;;;;;;;;;8,4;ppm;ICP;88;ppm;Unknown;;;;;;;;;;5;ppm;Unknown;6,8;ppm;Unknown;7;ppm;Unknown;;;;;;;;;;0,06;ppm;INAA;0,18;ppm;INAA;37;ppm;INAA;;;;219;ppm;Unknown;0,52;ppm;INAA;2,3;ppm;INAA;;;;;;;0,7;ppm;INAA;;;;;;;22;ppm;Unknown;83;ppm;Unknown;97;ppm;Unknown;;;;;;;;;;;;;;;;;;;;;;;;;;;;;;;;;;0,2;wt%;TITR;1,1;wt%;TITR;0,2;wt%;TITR;1,1;wt%;TITR;;;
GROSCAMP-W-243837;;GROSSMAN-CAMP;GROSSMAN, 1991;39,0667;-77,4606;0,0001;;;CONTINENTAL_RIFT;;;;"AAS; COL; ES; ICP; INAA; TITR; Unknown";WHOLE ROCK;IGNEOUS:VOLCANIC:MAFIC;DIABASE;;52,2;wt%;COL;1,15;wt%;COL;13,8;wt%;COL;;;;2,9;wt%;Unknown;;;;8,2;wt%;TITR;;;;;;;0,18;wt%;AAS;7,64;wt%;AAS;10,9;wt%;Unknown;;;;1,94;wt%;Unknown;0,4;wt%;AAS;0,15;wt%;COL;;;;;;;;;;0,2;wt%;TITR;1;wt%;TITR;;;;;;;;;;77;ppm;Unknown;49;ppm;Unknown;102;ppm;Unknown;;;;70;ppm;Unknown;1,3;ppm;INAA;;;;0,04;ppm;INAA;;;;;;;;;;;;;;;;;;;;;;;;;;;;;;;;;;;;;;;;;;;;;;;;;;;;;;;;;;;;;;;;;;;;;;;;;;;;;;;;;;;;;;;;;;;;;;;;;;;;;;;;;;;;;;;;;;;;;;;;;11,5;ppm;INAA;25;ppm;INAA;;;;12;ppm;INAA;3,6;ppm;INAA;1,1;ppm;INAA;;;;0,73;ppm;INAA;;;;;;;;;;;;;2,2;ppm;INAA;0,34;ppm;INAA;0,01;ppm;TITR;0,02;ppm;INAA;0,01;ppm;INAA;;;;;;;;;;;;;;;;;;;;;;1,3;ppm;INAA;;;;5,2;ppm;ES;176;ppm;Unknown;;;;;;;;;;;;;49;ppm;Unknown;310;ppm;Unknown;;;;102;ppm;Unknown;19;ppm;ICP;;;;2,7;ppm;INAA;;;;;;;;;;;;;;;;;;;;;;7,5;ppm;ICP;77;ppm;Unknown;;;;;;;;;;5,2;ppm;Unknown;7,5;ppm;Unknown;7;ppm;Unknown;;;;;;;;;;0,04;ppm;INAA;0,13;ppm;INAA;38;ppm;INAA;;;;220;ppm;Unknown;0,57;ppm;INAA;2,3;ppm;INAA;;;;;;;0,52;ppm;INAA;;;;;;;22;ppm;Unknown;70;ppm;Unknown;96;ppm;Unknown;;;;;;;;;;;;;;;;;;;;;;;;;1,3;ppm;INAA;1,3;ppm;INAA;;;;0,2;wt%;TITR;1;wt%;TITR;0,2;wt%;TITR;1;wt%;TITR;;;
GROSCAMP-W-243838;;GROSSMAN-CAMP;GROSSMAN, 1991;39,0667;-77,4597;0,0001;;;CONTINENTAL_RIFT;;;;"AAS; COL; ES; ICP; INAA; TITR; Unknown";WHOLE ROCK;IGNEOUS:VOLCANIC:MAFIC;DIABASE;;49,1;wt%;COL;0,42;wt%;COL;16,6;wt%;COL;;;;2,43;wt%;Unknown;;;;6,2;wt%;TITR;;;;;;;0,15;wt%;AAS;10,3;wt%;AAS;12,2;wt%;Unknown;;;;1,9;wt%;Unknown;0,26;wt%;AAS;0,08;wt%;COL;;;;;;;;;;0,2;wt%;TITR;0,62;wt%;TITR;;;;;;;;;;165;ppm;Unknown;49;ppm;Unknown;54;ppm;Unknown;;;;58;ppm;Unknown;;;;;;;0,03;ppm;INAA;;;;;;;;;;;;;;;;;;;;;;;;;;;;;;;;;;;;;;;;;;;;;;;;;;;;;;;;;;;;;;;;;;;;;;;;;;;;;;;;;;;;;;;;;;;;;;;;;;;;;;;;;;;;;;;;;;;;;;;;;4,1;ppm;INAA;8,2;ppm;INAA;;;;6,8;ppm;INAA;1,53;ppm;INAA;0,49;ppm;INAA;;;;0,38;ppm;INAA;;;;;;;;;;;;;2;ppm;INAA;0,3;ppm;INAA;0,03;ppm;TITR;0,01;ppm;INAA;;;;;;;;;;;;;;;;;;;;;;;;;;;;5,7;ppm;INAA;17,4;ppm;ES;69;ppm;Unknown;;;;;;;;;;;;;49;ppm;Unknown;640;ppm;Unknown;;;;54;ppm;Unknown;15;ppm;ICP;;;;0,96;ppm;INAA;;;;;;;;;;;;;;;;;;;;;;1,8;ppm;ICP;165;ppm;Unknown;;;;;;;;;;4,4;ppm;Unknown;5,5;ppm;Unknown;7;ppm;Unknown;;;;;;;;;;0,03;ppm;INAA;;;;38;ppm;INAA;;;;156;ppm;Unknown;;;;0,6;ppm;INAA;;;;;;;;;;;;;;;;16;ppm;Unknown;58;ppm;Unknown;52;ppm;Unknown;;;;;;;;;;;;;;;;;;;;;;;;;;;;;;;;;;0,2;wt%;TITR;0,62;wt%;TITR;0,2;wt%;TITR;0,62;wt%;TITR;;;
GROSCAMP-W-243859;;GROSSMAN-CAMP;GROSSMAN, 1991;40,2083;-76,5097;0,001;;;CONTINENTAL_RIFT;;;;"AAS; COL; ES; ICP; INAA; TITR; Unknown";WHOLE ROCK;IGNEOUS:VOLCANIC:MAFIC;DIABASE;;51,9;wt%;COL;0,77;wt%;COL;13,3;wt%;COL;;;;1,64;wt%;Unknown;;;;7,7;wt%;TITR;;;;;;;0,16;wt%;AAS;10,2;wt%;AAS;12;wt%;Unknown;;;;1,63;wt%;Unknown;0,41;wt%;AAS;0,1;wt%;COL;;;;;;;;;;0,1;wt%;TITR;0,22;wt%;TITR;;;;;;;;;;130;ppm;Unknown;48;ppm;Unknown;68;ppm;Unknown;;;;67;ppm;Unknown;;;;0,038;ppm;AAS;0,05;ppm;INAA;;;;;;;;;;;;;;;;;;;;;;;;;;;;;;;;;;;;;;;;;;;;;;;;;;;;;;;;;;;;;;;;;;;;;;;;;;;;;;;;;;;;;;;;;;;;;;;;;;;;;;;;;;;;;;;;;;;;;;;;;7,1;ppm;INAA;15,4;ppm;INAA;;;;8,3;ppm;INAA;2,35;ppm;INAA;0,76;ppm;INAA;;;;0,48;ppm;INAA;;;;;;;;;;;;;1,7;ppm;INAA;0,24;ppm;INAA;0,02;ppm;TITR;0,02;ppm;INAA;0,04;ppm;INAA;;;;;;;;;;;;;;;;0,038;ppm;AAS;;;;;;;;;;9,6;ppm;ES;97;ppm;Unknown;;;;;;;;;;;;;48;ppm;Unknown;750;ppm;Unknown;0,81;ppm;INAA;68;ppm;Unknown;18;ppm;ICP;;;;1,61;ppm;INAA;;;;;;;;;;;;;;;;;;;;;;4,7;ppm;ICP;130;ppm;Unknown;;;;;;;;;;4,4;ppm;Unknown;24;ppm;Unknown;22;ppm;Unknown;;;;;;;;;;0,05;ppm;INAA;;;;39;ppm;INAA;;;;166;ppm;Unknown;0,35;ppm;INAA;1,3;ppm;INAA;;;;;;;;;;;;;;;;17;ppm;Unknown;67;ppm;Unknown;71;ppm;Unknown;;;;;;;;;;;;;;;;;;;;;;;;;;;;;;;;;;0,1;wt%;TITR;0,22;wt%;TITR;0,1;wt%;TITR;0,22;wt%;TITR;;;
GROSCAMP-W-243860;;GROSSMAN-CAMP;GROSSMAN, 1991;40,225;-76,4986;0,001;;;CONTINENTAL_RIFT;;;;"AAS; COL; ES; ICP; INAA; TITR; Unknown";WHOLE ROCK;IGNEOUS:VOLCANIC:MAFIC;DIABASE;;52;wt%;COL;0,75;wt%;COL;14,1;wt%;COL;;;;1,37;wt%;Unknown;;;;7,4;wt%;TITR;;;;;;;0,15;wt%;AAS;9,7;wt%;AAS;12,2;wt%;Unknown;;;;1,73;wt%;Unknown;0,38;wt%;AAS;0,09;wt%;COL;;;;;;;;;;0,02;wt%;TITR;0,19;wt%;TITR;;;;;;;;;;123;ppm;Unknown;46;ppm;Unknown;63;ppm;Unknown;;;;65;ppm;Unknown;;;;0,033;ppm;AAS;0,04;ppm;INAA;;;;;;;;;;;;;;;;;;;;;;;;;;;;;;;;;;;;;;;;;;;;;;;;;;;;;;;;;;;;;;;;;;;;;;;;;;;;;;;;;;;;;;;;;;;;;;;;;;;;;;;;;;;;;;;;;;;;;;;;;6,6;ppm;INAA;15;ppm;INAA;;;;8,3;ppm;INAA;2,15;ppm;INAA;0,78;ppm;INAA;;;;0,4;ppm;INAA;;;;;;;;;;;;;1,5;ppm;INAA;0,21;ppm;INAA;0,01;ppm;TITR;0,01;ppm;INAA;0,01;ppm;INAA;;;;;;;;;;;;;;;;0,033;ppm;AAS;;;;;;;;;;6,3;ppm;ES;97;ppm;Unknown;;;;;;;;;;;;;46;ppm;Unknown;530;ppm;Unknown;0,41;ppm;INAA;63;ppm;Unknown;18;ppm;ICP;;;;1,5;ppm;INAA;;;;;;;;;;;;;;;;;;;;;;3,9;ppm;ICP;123;ppm;Unknown;;;;;;;;;;3,9;ppm;Unknown;17;ppm;Unknown;11;ppm;Unknown;;;;;;;;;;0,04;ppm;INAA;;;;38;ppm;INAA;;;;171;ppm;Unknown;0,31;ppm;INAA;1,2;ppm;INAA;;;;;;;;;;;;;;;;13;ppm;Unknown;65;ppm;Unknown;64;ppm;Unknown;;;;;;;;;;;;;;;;;;;;;;;;;;;;;;;;;;0,02;wt%;TITR;0,19;wt%;TITR;0,02;wt%;TITR;0,19;wt%;TITR;;;
GROSCAMP-W-243861;;GROSSMAN-CAMP;GROSSMAN, 1991;40,225;-76,4606;0,001;;;CONTINENTAL_RIFT;;;;"AAS; COL; ES; ICP; ICPMS; INAA; TITR; Unknown";WHOLE ROCK;IGNEOUS:VOLCANIC:MAFIC;DIABASE;;52;wt%;COL;1,13;wt%;COL;13,8;wt%;COL;;;;2,42;wt%;Unknown;;;;8,4;wt%;TITR;;;;;;;0,18;wt%;AAS;7,96;wt%;AAS;11,1;wt%;Unknown;;;;1,97;wt%;Unknown;0,56;wt%;AAS;0,14;wt%;COL;;;;;;;;;;0,04;wt%;TITR;0,49;wt%;TITR;;;;;;;;;;96;ppm;Unknown;48;ppm;Unknown;98;ppm;Unknown;;;;78;ppm;Unknown;1,2;ppm;INAA;0,046;ppm;AAS;0,05;ppm;INAA;;;;;;;;;;;;;;;;;;;;;;;;;;;;;;;;;;;;;;;;;;;;;;;;;;;;;;;;;;;;;;;;;;;;;;;;;;;;;;;;;;;;;;;;;;;;;;;;;;;;;;;;;;;;;;;;;;;;;;;;;10,9;ppm;INAA;23;ppm;INAA;;;;13;ppm;INAA;3,5;ppm;INAA;1,05;ppm;INAA;;;;0,63;ppm;INAA;;;;;;;;;;;;;2,4;ppm;INAA;0,32;ppm;INAA;0,02;ppm;TITR;0,02;ppm;INAA;0,01;ppm;INAA;;;;;;;;;;;;;;;;0,046;ppm;AAS;;;;1,2;ppm;INAA;9,3;ppm;INAA;9,5;ppm;ES;154;ppm;Unknown;;;;;;;;;;;;;48;ppm;Unknown;360;ppm;Unknown;0,74;ppm;INAA;98;ppm;Unknown;20;ppm;ICP;;;;2,4;ppm;INAA;;;;0,5;ppm;ICPMS;;;;;;;;;;;;;;;;6,4;ppm;ICP;96;ppm;Unknown;;;;;;;;;;11;ppm;Unknown;11;ppm;Unknown;20;ppm;Unknown;;;;0,7;ppm;Unknown;;;;0,05;ppm;INAA;0,23;ppm;INAA;37;ppm;INAA;;;;177;ppm;Unknown;0,48;ppm;INAA;2,2;ppm;INAA;;;;;;;0,45;ppm;INAA;;;;;;;21;ppm;Unknown;78;ppm;Unknown;101;ppm;Unknown;;;;;;;;;;;;;;;;;;;;;;;;;1,2;ppm;INAA;1,2;ppm;INAA;;;;0,04;wt%;TITR;0,49;wt%;TITR;0,04;wt%;TITR;0,49;wt%;TITR;;;
GROSCAMP-W-243862;;GROSSMAN-CAMP;GROSSMAN, 1991;40,225;-76,4606;0,001;;;CONTINENTAL_RIFT;;;;"AAS; COL; ES; ICP; INAA; TITR; Unknown";WHOLE ROCK;IGNEOUS:VOLCANIC:MAFIC;DIABASE;;52,1;wt%;COL;1,11;wt%;COL;13,9;wt%;COL;;;;2,02;wt%;Unknown;;;;8,5;wt%;TITR;;;;;;;0,17;wt%;AAS;8,27;wt%;AAS;11,2;wt%;Unknown;;;;1,95;wt%;Unknown;0,56;wt%;AAS;0,14;wt%;COL;;;;;;;;;;0,09;wt%;TITR;0,24;wt%;TITR;;;;;;;;;;96;ppm;Unknown;48;ppm;Unknown;94;ppm;Unknown;;;;77;ppm;Unknown;1,3;ppm;INAA;0,04;ppm;AAS;0,06;ppm;INAA;;;;;;;;;;;;;;;;;;;;;;;;;;;;;;;;;;;;;;;;;;;;;;;;;;;;;;;;;;;;;;;;;;;;;;;;;;;;;;;;;;;;;;;;;;;;;;;;;;;;;;;;;;;;;;;;;;;;;;;;;10,2;ppm;INAA;22;ppm;INAA;;;;12;ppm;INAA;3,4;ppm;INAA;1;ppm;INAA;;;;0,56;ppm;INAA;;;;;;;;;;;;;2;ppm;INAA;0,32;ppm;INAA;0,01;ppm;TITR;0,02;ppm;INAA;0,01;ppm;INAA;;;;;;;;;;;;;;;;0,04;ppm;AAS;;;;1,3;ppm;INAA;12;ppm;INAA;4,6;ppm;ES;160;ppm;Unknown;;;;;;;;;;;;;48;ppm;Unknown;390;ppm;Unknown;0,95;ppm;INAA;94;ppm;Unknown;20;ppm;ICP;;;;2,4;ppm;INAA;;;;;;;;;;;;;;;;;;;;;;6,2;ppm;ICP;96;ppm;Unknown;;;;;;;;;;7,9;ppm;Unknown;7,3;ppm;Unknown;11;ppm;Unknown;;;;;;;;;;0,06;ppm;INAA;0,2;ppm;INAA;37;ppm;INAA;;;;166;ppm;Unknown;0,49;ppm;INAA;2,1;ppm;INAA;;;;;;;0,36;ppm;INAA;;;;;;;20;ppm;Unknown;77;ppm;Unknown;96;ppm;Unknown;;;;;;;;;;;;;;;;;;;;;;;;;1,3;ppm;INAA;1,3;ppm;INAA;;;;0,09;wt%;TITR;0,24;wt%;TITR;0,09;wt%;TITR;0,24;wt%;TITR;;;