SAMPLE ID;IGSN;EXPEDITION ID;REFERENCES;LATITUDE;LONGITUDE;LOC PREC;MIN ELEVATION;MAX ELEVATION;TECTONIC SETTING;MIN AGE;AGE;MAX AGE;METHOD;ANALYZED MATERIAL;ROCK TYPE;ROCK NAME;MINERAL;SIO2;SIO2 Units;SIO2 Method;TIO2;TIO2 Units;TIO2 Method;AL2O3;AL2O3 Units;AL2O3 Method;CR2O3;CR2O3 Units;CR2O3 Method;FE2O3;FE2O3 Units;FE2O3 Method;FE2O3T;FE2O3T Units;FE2O3T Method;FEO;FEO Units;FEO Method;FEOT;FEOT Units;FEOT Method;NIO;NIO Units;NIO Method;MNO;MNO Units;MNO Method;MGO;MGO Units;MGO Method;CAO;CAO Units;CAO Method;SRO;SRO Units;SRO Method;NA2O;NA2O Units;NA2O Method;K2O;K2O Units;K2O Method;P2O5;P2O5 Units;P2O5 Method;BAO;BAO Units;BAO Method;LOI;LOI Units;LOI Method;H2O;H2O Units;H2O Method;H2O_M;H2O_M Units;H2O_M Method;H2O_P;H2O_P Units;H2O_P Method;SO3;SO3 Units;SO3 Method;COO;COO Units;COO Method;MN;MN Units;MN Method;NI;NI Units;NI Method;CO;CO Units;CO Method;CU;CU Units;CU Method;CD;CD Units;CD Method;ZN;ZN Units;ZN Method;AS;AS Units;AS Method;AG;AG Units;AG Method;S;S Units;S Method;ZRO2;ZRO2 Units;ZRO2 Method;AL;AL Units;AL Method;CA;CA Units;CA Method;SR87_SR86;SR87_SR86 Units;SR87_SR86 Method;SR87_SR86_INI;SR87_SR86_INI Units;SR87_SR86_INI Method;RB87_SR86;RB87_SR86 Units;RB87_SR86 Method;ND143_ND144;ND143_ND144 Units;ND143_ND144 Method;ND143_ND144_INI;ND143_ND144_INI Units;ND143_ND144_INI Method;SM147_ND144;SM147_ND144 Units;SM147_ND144 Method;E_ND;E_ND Units;E_ND Method;E_ND_INI;E_ND_INI Units;E_ND_INI Method;PB204_PB206;PB204_PB206 Units;PB204_PB206 Method;PB206_PB204;PB206_PB204 Units;PB206_PB204 Method;PB206_PB204_INI;PB206_PB204_INI Units;PB206_PB204_INI Method;PB207_PB204;PB207_PB204 Units;PB207_PB204 Method;PB207_PB204_INI;PB207_PB204_INI Units;PB207_PB204_INI Method;PB207_PB206;PB207_PB206 Units;PB207_PB206 Method;PB208_PB204;PB208_PB204 Units;PB208_PB204 Method;PB208_PB204_INI;PB208_PB204_INI Units;PB208_PB204_INI Method;PB208_PB206;PB208_PB206 Units;PB208_PB206 Method;HF176_HF177;HF176_HF177 Units;HF176_HF177 Method;RE187_OS188;RE187_OS188 Units;RE187_OS188 Method;OS187_OS188;OS187_OS188 Units;OS187_OS188 Method;OS187_OS188_INI;OS187_OS188_INI Units;OS187_OS188_INI Method;G_OS;G_OS Units;G_OS Method;G_OS_INI;G_OS_INI Units;G_OS_INI Method;ND143_ND144_INI;ND143_ND144_INI Units;ND143_ND144_INI Method;PB206_PB204_INI;PB206_PB204_INI Units;PB206_PB204_INI Method;PB207_PB204_INI;PB207_PB204_INI Units;PB207_PB204_INI Method;PB208_PB204_INI;PB208_PB204_INI Units;PB208_PB204_INI Method;SR87_SR86_INI;SR87_SR86_INI Units;SR87_SR86_INI Method;HE;HE Units;HE Method;HE3;HE3 Units;HE3 Method;HE3_HE4_R_RA;HE3_HE4_R_RA Units;HE3_HE4_R_RA Method;AR36;AR36 Units;AR36 Method;AR40;AR40 Units;AR40 Method;AR40_AR36;AR40_AR36 Units;AR40_AR36 Method;NE20;NE20 Units;NE20 Method;NE20_NE22;NE20_NE22 Units;NE20_NE22 Method;NE21_NE22;NE21_NE22 Units;NE21_NE22 Method;LA;LA Units;LA Method;CE;CE Units;CE Method;PR;PR Units;PR Method;ND;ND Units;ND Method;SM;SM Units;SM Method;EU;EU Units;EU Method;GD;GD Units;GD Method;TB;TB Units;TB Method;DY;DY Units;DY Method;HO;HO Units;HO Method;ER;ER Units;ER Method;TM;TM Units;TM Method;YB;YB Units;YB Method;LU;LU Units;LU Method;CO2;CO2 Units;CO2 Method;F;F Units;F Method;CL;CL Units;CL Method;U238_PB204;U238_PB204 Units;U238_PB204 Method;TH230_TH232;TH230_TH232 Units;TH230_TH232 Method;RA226_ACTIVITY;RA226_ACTIVITY Units;RA226_ACTIVITY Method;PB210_RA226;PB210_RA226 Units;PB210_RA226 Method;PB210_ACTIVITY;PB210_ACTIVITY Units;PB210_ACTIVITY Method;AG;AG Units;AG Method;AL;AL Units;AL Method;AS;AS Units;AS Method;AU;AU Units;AU Method;B;B Units;B Method;BA;BA Units;BA Method;BE;BE Units;BE Method;BI;BI Units;BI Method;CA;CA Units;CA Method;CD;CD Units;CD Method;CO;CO Units;CO Method;CR;CR Units;CR Method;CS;CS Units;CS Method;CU;CU Units;CU Method;GA;GA Units;GA Method;GER;GER Units;GER Method;HF;HF Units;HF Method;INDIUM;INDIUM Units;INDIUM Method;IR;IR Units;IR Method;K;K Units;K Method;LI;LI Units;LI Method;MN;MN Units;MN Method;MO;MO Units;MO Method;NA;NA Units;NA Method;NB;NB Units;NB Method;NI;NI Units;NI Method;OS;OS Units;OS Method;P;P Units;P Method;PB;PB Units;PB Method;PD;PD Units;PD Method;PT;PT Units;PT Method;RB;RB Units;RB Method;RE;RE Units;RE Method;RH;RH Units;RH Method;RU;RU Units;RU Method;S;S Units;S Method;SB;SB Units;SB Method;SC;SC Units;SC Method;SN;SN Units;SN Method;SR;SR Units;SR Method;TA;TA Units;TA Method;TH;TH Units;TH Method;TI;TI Units;TI Method;TL;TL Units;TL Method;U;U Units;U Method;V;V Units;V Method;W;W Units;W Method;Y;Y Units;Y Method;ZN;ZN Units;ZN Method;ZR;ZR Units;ZR Method;DELTA_O18;DELTA_O18 Units;DELTA_O18 Method;DELTA_C13;DELTA_C13 Units;DELTA_C13 Method;DELTA_MO98;DELTA_MO98 Units;DELTA_MO98 Method;DELTA_ZN66;DELTA_ZN66 Units;DELTA_ZN66 Method;DELTA_ZN68;DELTA_ZN68 Units;DELTA_ZN68 Method;OS188;OS188 Units;OS188 Method;FE3P_FET;FE3P_FET Units;FE3P_FET Method;TI;TI Units;TI Method;AS;AS Units;AS Method;AS;AS Units;AS Method;GER;GER Units;GER Method;H2O_M;H2O_M Units;H2O_M Method;H2O_P;H2O_P Units;H2O_P Method;H2O_M;H2O_M Units;H2O_M Method;H2O_P;H2O_P Units;H2O_P Method;INDIUM;INDIUM Units;INDIUM Method
GROSCAMP-W-241388;;GROSSMAN-CAMP;GROSSMAN, 1991;40,2;-76,8722;0,001;;;CONTINENTAL_RIFT;;;;"AAS; COL; ES; ICP; INAA; TITR; Unknown";WHOLE ROCK;IGNEOUS:VOLCANIC:MAFIC;DIABASE;;52,9;wt%;COL;1,22;wt%;COL;18;wt%;COL;;;;2,31;wt%;Unknown;;;;7,6;wt%;TITR;;;;;;;0,15;wt%;AAS;3,63;wt%;AAS;10,6;wt%;Unknown;;;;2,98;wt%;Unknown;0,74;wt%;AAS;0,14;wt%;COL;;;;;;;;;;0,15;wt%;TITR;0,61;wt%;TITR;;;;;;;;;;32;ppm;Unknown;37;ppm;Unknown;92;ppm;Unknown;;;;63;ppm;Unknown;1,1;ppm;INAA;;;;0,01;ppm;INAA;;;;;;;;;;;;;;;;;;;;;;;;;;;;;;;;;;;;;;;;;;;;;;;;;;;;;;;;;;;;;;;;;;;;;;;;;;;;;;;;;;;;;;;;;;;;;;;;;;;;;;;;;;;;;;;;;;;;;;;;;12,2;ppm;INAA;25,3;ppm;INAA;;;;14;ppm;INAA;3,6;ppm;INAA;1,24;ppm;INAA;;;;0,69;ppm;INAA;;;;;;;;;;;;;2,15;ppm;INAA;0,298;ppm;INAA;0,02;ppm;TITR;0,01;ppm;INAA;0,04;ppm;INAA;;;;;;;;;;;;;;;;;;;;;;1,1;ppm;INAA;;;;9,3;ppm;ES;212;ppm;Unknown;;;;;;;;;;;;;37;ppm;Unknown;7,4;ppm;Unknown;1;ppm;INAA;92;ppm;Unknown;;;;;;;2,7;ppm;INAA;;;;;;;;;;;;;;;;;;;;;;8,2;ppm;ICP;32;ppm;Unknown;;;;;;;;;;12;ppm;Unknown;11;ppm;Unknown;25;ppm;Unknown;;;;;;;;;;0,01;ppm;INAA;0,18;ppm;INAA;29;ppm;INAA;;;;248;ppm;Unknown;0,62;ppm;INAA;2,29;ppm;INAA;;;;;;;0,48;ppm;INAA;;;;;;;26;ppm;Unknown;63;ppm;Unknown;99;ppm;Unknown;;;;;;;;;;;;;;;;;;;;;;;;;1,1;ppm;INAA;1,1;ppm;INAA;;;;0,15;wt%;TITR;0,61;wt%;TITR;0,15;wt%;TITR;0,61;wt%;TITR;;;
GROSCAMP-W-241389;;GROSSMAN-CAMP;GROSSMAN, 1991;40,2;-76,8722;0,001;;;CONTINENTAL_RIFT;;;;"AAS; COL; ES; ICP; INAA; TITR; Unknown";WHOLE ROCK;IGNEOUS:VOLCANIC:MAFIC;DIABASE;;52,7;wt%;COL;1,22;wt%;COL;17,3;wt%;COL;;;;2,44;wt%;Unknown;;;;7,99;wt%;TITR;;;;;;;0,16;wt%;AAS;4,16;wt%;AAS;10,6;wt%;Unknown;;;;2,8;wt%;Unknown;0,68;wt%;AAS;0,14;wt%;COL;;;;;;;;;;0,25;wt%;TITR;0,51;wt%;TITR;;;;;;;;;;40;ppm;Unknown;40;ppm;Unknown;114;ppm;Unknown;;;;80;ppm;Unknown;1,2;ppm;INAA;;;;0,02;ppm;INAA;;;;;;;;;;;;;;;;;;;;;;;;;;;;;;;;;;;;;;;;;;;;;;;;;;;;;;;;;;;;;;;;;;;;;;;;;;;;;;;;;;;;;;;;;;;;;;;;;;;;;;;;;;;;;;;;;;;;;;;;;12,3;ppm;INAA;25,2;ppm;INAA;;;;13;ppm;INAA;3,7;ppm;INAA;1,22;ppm;INAA;;;;0,67;ppm;INAA;;;;;;;;;;;;;2,2;ppm;INAA;0,32;ppm;INAA;0,01;ppm;TITR;0,02;ppm;INAA;0,04;ppm;INAA;;;;;;;;;;;;;;;;;;;;;;1,2;ppm;INAA;;;;4;ppm;ES;198;ppm;Unknown;;;;;;;;;;;;;40;ppm;Unknown;13;ppm;Unknown;0,98;ppm;INAA;114;ppm;Unknown;;;;;;;2,71;ppm;INAA;;;;;;;;;;;;;;;;;;;;;;8,6;ppm;ICP;40;ppm;Unknown;;;;;;;;;;11;ppm;Unknown;6,4;ppm;Unknown;20;ppm;Unknown;;;;;;;;;;0,02;ppm;INAA;0,19;ppm;INAA;32;ppm;INAA;;;;233;ppm;Unknown;0,54;ppm;INAA;2,5;ppm;INAA;;;;;;;0,62;ppm;INAA;;;;;;;24;ppm;Unknown;80;ppm;Unknown;98;ppm;Unknown;;;;;;;;;;;;;;;;;;;;;;;;;1,2;ppm;INAA;1,2;ppm;INAA;;;;0,25;wt%;TITR;0,51;wt%;TITR;0,25;wt%;TITR;0,51;wt%;TITR;;;
GROSCAMP-W-241390;;GROSSMAN-CAMP;GROSSMAN, 1991;40,2;-76,8722;0,001;;;CONTINENTAL_RIFT;;;;"AAS; COL; ES; ICP; INAA; TITR; Unknown";WHOLE ROCK;IGNEOUS:VOLCANIC:MAFIC;DIABASE;;52,8;wt%;COL;1,2;wt%;COL;17,9;wt%;COL;;;;2,48;wt%;Unknown;;;;7,62;wt%;TITR;;;;;;;0,16;wt%;AAS;3,86;wt%;AAS;10,6;wt%;Unknown;;;;2,9;wt%;Unknown;0,72;wt%;AAS;0,13;wt%;COL;;;;;;;;;;0,17;wt%;TITR;0,63;wt%;TITR;;;;;;;;;;34;ppm;Unknown;38;ppm;Unknown;80;ppm;Unknown;;;;70;ppm;Unknown;1,4;ppm;INAA;;;;0,02;ppm;INAA;;;;;;;;;;;;;;;;;;;;;;;;;;;;;;;;;;;;;;;;;;;;;;;;;;;;;;;;;;;;;;;;;;;;;;;;;;;;;;;;;;;;;;;;;;;;;;;;;;;;;;;;;;;;;;;;;;;;;;;;;11,8;ppm;INAA;24,3;ppm;INAA;;;;12;ppm;INAA;3,6;ppm;INAA;1,22;ppm;INAA;;;;0,66;ppm;INAA;;;;;;;;;;;;;2,18;ppm;INAA;0,32;ppm;INAA;0,02;ppm;TITR;0,02;ppm;INAA;0,05;ppm;INAA;;;;;;;;;;;;;;;;;;;;;;1,4;ppm;INAA;;;;7,8;ppm;ES;194;ppm;Unknown;;;;;;;;;;;;;38;ppm;Unknown;12;ppm;Unknown;0,9;ppm;INAA;80;ppm;Unknown;;;;;;;2,7;ppm;INAA;;;;;;;;;;;;;;;;;;;;;;7,9;ppm;ICP;34;ppm;Unknown;;;;;;;;;;12;ppm;Unknown;7,7;ppm;Unknown;24;ppm;Unknown;;;;;;;;;;0,02;ppm;INAA;0,16;ppm;INAA;29,9;ppm;INAA;;;;243;ppm;Unknown;0,53;ppm;INAA;2,4;ppm;INAA;;;;;;;0,41;ppm;INAA;;;;;;;25;ppm;Unknown;70;ppm;Unknown;93;ppm;Unknown;;;;;;;;;;;;;;;;;;;;;;;;;1,4;ppm;INAA;1,4;ppm;INAA;;;;0,17;wt%;TITR;0,63;wt%;TITR;0,17;wt%;TITR;0,63;wt%;TITR;;;
GROSCAMP-W-241391;;GROSSMAN-CAMP;GROSSMAN, 1991;40,2;-76,8722;0,001;;;CONTINENTAL_RIFT;;;;"AAS; COL; ES; ICP; INAA; TITR; Unknown";WHOLE ROCK;IGNEOUS:VOLCANIC:MAFIC;DIABASE;;51,9;wt%;COL;1,48;wt%;COL;15,6;wt%;COL;;;;3,19;wt%;Unknown;;;;9,29;wt%;TITR;;;;;;;0,18;wt%;AAS;4,81;wt%;AAS;10,5;wt%;Unknown;;;;2,44;wt%;Unknown;0,68;wt%;AAS;0,14;wt%;COL;;;;;;;;;;0,22;wt%;TITR;0,51;wt%;TITR;;;;;;;;;;40;ppm;Unknown;49;ppm;Unknown;97;ppm;Unknown;;;;69;ppm;Unknown;1,2;ppm;INAA;;;;0,01;ppm;INAA;;;;;;;;;;;;;;;;;;;;;;;;;;;;;;;;;;;;;;;;;;;;;;;;;;;;;;;;;;;;;;;;;;;;;;;;;;;;;;;;;;;;;;;;;;;;;;;;;;;;;;;;;;;;;;;;;;;;;;;;;11,9;ppm;INAA;24,9;ppm;INAA;;;;13;ppm;INAA;3,8;ppm;INAA;1,15;ppm;INAA;;;;0,73;ppm;INAA;;;;;;;;;;;;;2,46;ppm;INAA;0,35;ppm;INAA;0,04;ppm;TITR;0,02;ppm;INAA;0,05;ppm;INAA;;;;;;;;;;;;;;;;;;;;;;1,2;ppm;INAA;;;;4;ppm;ES;187;ppm;Unknown;;;;;;;;;;;;;49;ppm;Unknown;17;ppm;Unknown;0,99;ppm;INAA;97;ppm;Unknown;;;;;;;2,6;ppm;INAA;;;;;;;;;;;;;;;;;;;;;;9;ppm;ICP;40;ppm;Unknown;;;;;;;;;;11;ppm;Unknown;5,3;ppm;Unknown;21;ppm;Unknown;;;;;;;;;;0,01;ppm;INAA;0,13;ppm;INAA;40;ppm;INAA;;;;209;ppm;Unknown;0,55;ppm;INAA;2,4;ppm;INAA;;;;;;;0,44;ppm;INAA;;;;;;;28;ppm;Unknown;69;ppm;Unknown;98;ppm;Unknown;;;;;;;;;;;;;;;;;;;;;;;;;1,2;ppm;INAA;1,2;ppm;INAA;;;;0,22;wt%;TITR;0,51;wt%;TITR;0,22;wt%;TITR;0,51;wt%;TITR;;;
GROSCAMP-W-241392;;GROSSMAN-CAMP;GROSSMAN, 1991;40,2;-76,8722;0,001;;;CONTINENTAL_RIFT;;;;"AAS; COL; ES; ICP; INAA; TITR; Unknown";WHOLE ROCK;IGNEOUS:VOLCANIC:MAFIC;DIABASE;;52,7;wt%;COL;1,32;wt%;COL;16,8;wt%;COL;;;;2,71;wt%;Unknown;;;;8,28;wt%;TITR;;;;;;;0,17;wt%;AAS;4,38;wt%;AAS;10,6;wt%;Unknown;;;;2,72;wt%;Unknown;0,68;wt%;AAS;0,14;wt%;COL;;;;;;;;;;0,21;wt%;TITR;0,49;wt%;TITR;;;;;;;;;;39;ppm;Unknown;43;ppm;Unknown;92;ppm;Unknown;;;;76;ppm;Unknown;1,2;ppm;INAA;;;;0,02;ppm;INAA;;;;;;;;;;;;;;;;;;;;;;;;;;;;;;;;;;;;;;;;;;;;;;;;;;;;;;;;;;;;;;;;;;;;;;;;;;;;;;;;;;;;;;;;;;;;;;;;;;;;;;;;;;;;;;;;;;;;;;;;;12,6;ppm;INAA;26;ppm;INAA;;;;13;ppm;INAA;3,8;ppm;INAA;1,22;ppm;INAA;;;;0,66;ppm;INAA;;;;;;;;;;;;;2,3;ppm;INAA;0,35;ppm;INAA;0,05;ppm;TITR;0,02;ppm;INAA;0,04;ppm;INAA;;;;;;;;;;;;;;;;;;;;;;1,2;ppm;INAA;;;;3;ppm;ES;195;ppm;Unknown;;;;;;;;;;;;;43;ppm;Unknown;23;ppm;Unknown;1,2;ppm;INAA;92;ppm;Unknown;;;;;;;2,7;ppm;INAA;;;;;;;;;;;;;;;;;;;;;;8,8;ppm;ICP;39;ppm;Unknown;;;;;;;;;;13;ppm;Unknown;5,9;ppm;Unknown;20;ppm;Unknown;;;;;;;;;;0,02;ppm;INAA;0,14;ppm;INAA;34;ppm;INAA;;;;222;ppm;Unknown;0,59;ppm;INAA;2,5;ppm;INAA;;;;;;;0,46;ppm;INAA;;;;;;;20;ppm;Unknown;76;ppm;Unknown;95;ppm;Unknown;;;;;;;;;;;;;;;;;;;;;;;;;1,2;ppm;INAA;1,2;ppm;INAA;;;;0,21;wt%;TITR;0,49;wt%;TITR;0,21;wt%;TITR;0,49;wt%;TITR;;;
GROSCAMP-W-241393;;GROSSMAN-CAMP;GROSSMAN, 1991;40,2;-76,8722;0,001;;;CONTINENTAL_RIFT;;;;"AAS; COL; ES; ICP; INAA; TITR; Unknown";WHOLE ROCK;IGNEOUS:VOLCANIC:MAFIC;DIABASE;;50,4;wt%;COL;1,13;wt%;COL;18;wt%;COL;;;;3,2;wt%;Unknown;;;;5,73;wt%;TITR;;;;;;;0,17;wt%;AAS;3,09;wt%;AAS;12;wt%;Unknown;;;;2,9;wt%;Unknown;0,69;wt%;AAS;0,13;wt%;COL;;;;;;;;;;0,63;wt%;TITR;0,71;wt%;TITR;;;;;;;;;;36;ppm;Unknown;34;ppm;Unknown;100;ppm;Unknown;;;;68;ppm;Unknown;1,3;ppm;INAA;;;;0,02;ppm;INAA;;;;;;;;;;;;;;;;;;;;;;;;;;;;;;;;;;;;;;;;;;;;;;;;;;;;;;;;;;;;;;;;;;;;;;;;;;;;;;;;;;;;;;;;;;;;;;;;;;;;;;;;;;;;;;;;;;;;;;;;;11,8;ppm;INAA;24,2;ppm;INAA;;;;13;ppm;INAA;3,5;ppm;INAA;1,18;ppm;INAA;;;;0,63;ppm;INAA;;;;;;;;;;;;;2,12;ppm;INAA;0,29;ppm;INAA;1,94;ppm;TITR;0,02;ppm;INAA;0,04;ppm;INAA;;;;;;;;;;;;;;;;;;;;;;1,3;ppm;INAA;;;;2;ppm;ES;188;ppm;Unknown;;;;;;;;;;;;;34;ppm;Unknown;13;ppm;Unknown;1,2;ppm;INAA;100;ppm;Unknown;;;;;;;2,4;ppm;INAA;;;;;;;;;;;;;;;;;;;;;;8,4;ppm;ICP;36;ppm;Unknown;;;;;;;;;;10;ppm;Unknown;7,2;ppm;Unknown;31;ppm;Unknown;;;;;;;;;;0,02;ppm;INAA;0,1;ppm;INAA;29,4;ppm;INAA;;;;258;ppm;Unknown;0,54;ppm;INAA;2,4;ppm;INAA;;;;;;;0,58;ppm;INAA;;;;;;;30;ppm;Unknown;68;ppm;Unknown;105;ppm;Unknown;;;;;;;;;;;;;;;;;;;;;;;;;1,3;ppm;INAA;1,3;ppm;INAA;;;;0,63;wt%;TITR;0,71;wt%;TITR;0,63;wt%;TITR;0,71;wt%;TITR;;;
GROSCAMP-W-241394;;GROSSMAN-CAMP;GROSSMAN, 1991;40,2;-76,8722;0,001;;;CONTINENTAL_RIFT;;;;"AAS; COL; ES; ICP; INAA; TITR; Unknown";WHOLE ROCK;IGNEOUS:VOLCANIC:MAFIC;DIABASE;;52,9;wt%;COL;1,22;wt%;COL;18,2;wt%;COL;;;;2,46;wt%;Unknown;;;;7,42;wt%;TITR;;;;;;;0,14;wt%;AAS;3,85;wt%;AAS;10,8;wt%;Unknown;;;;2,84;wt%;Unknown;0,7;wt%;AAS;0,13;wt%;COL;;;;;;;;;;0,23;wt%;TITR;0,38;wt%;TITR;;;;;;;;;;39;ppm;Unknown;38;ppm;Unknown;85;ppm;Unknown;;;;69;ppm;Unknown;1;ppm;INAA;;;;0,01;ppm;INAA;;;;;;;;;;;;;;;;;;;;;;;;;;;;;;;;;;;;;;;;;;;;;;;;;;;;;;;;;;;;;;;;;;;;;;;;;;;;;;;;;;;;;;;;;;;;;;;;;;;;;;;;;;;;;;;;;;;;;;;;;12;ppm;INAA;24,3;ppm;INAA;;;;13;ppm;INAA;3,6;ppm;INAA;1,2;ppm;INAA;;;;0,61;ppm;INAA;;;;;;;;;;;;;2,12;ppm;INAA;0,31;ppm;INAA;0,1;ppm;TITR;;;;0,05;ppm;INAA;;;;;;;;;;;;;;;;;;;;;;1;ppm;INAA;;;;3;ppm;ES;178;ppm;Unknown;;;;;;;;;;;;;38;ppm;Unknown;14;ppm;Unknown;1;ppm;INAA;85;ppm;Unknown;;;;;;;2,5;ppm;INAA;;;;;;;;;;;;;;;;;;;;;;8;ppm;ICP;39;ppm;Unknown;;;;;;;;;;9,7;ppm;Unknown;8;ppm;Unknown;18;ppm;Unknown;;;;;;;;;;0,01;ppm;INAA;0,17;ppm;INAA;30;ppm;INAA;;;;239;ppm;Unknown;0,57;ppm;INAA;2,4;ppm;INAA;;;;;;;0,47;ppm;INAA;;;;;;;21;ppm;Unknown;69;ppm;Unknown;95;ppm;Unknown;;;;;;;;;;;;;;;;;;;;;;;;;1;ppm;INAA;1;ppm;INAA;;;;0,23;wt%;TITR;0,38;wt%;TITR;0,23;wt%;TITR;0,38;wt%;TITR;;;
GROSCAMP-W-241395;;GROSSMAN-CAMP;GROSSMAN, 1991;40,2;-76,8722;0,001;;;CONTINENTAL_RIFT;;;;"AAS; COL; ES; ICP; ICPMS; INAA; TITR; Unknown";WHOLE ROCK;IGNEOUS:VOLCANIC:MAFIC;DIABASE;;52,8;wt%;COL;1,24;wt%;COL;16,6;wt%;COL;;;;2,4;wt%;Unknown;;;;8,35;wt%;TITR;;;;;;;0,17;wt%;AAS;4,47;wt%;AAS;10,5;wt%;Unknown;;;;2,74;wt%;Unknown;0,75;wt%;AAS;0,14;wt%;COL;;;;;;;;;;0,15;wt%;TITR;0,62;wt%;TITR;;;;;;;;;;38;ppm;Unknown;41;ppm;Unknown;114;ppm;Unknown;;;;70;ppm;Unknown;1,2;ppm;INAA;;;;0,02;ppm;INAA;;;;;;;;;;;;;;;;;;;;;;;;;;;;;;;;;;;;;;;;;;;;;;;;;;;;;;;;;;;;;;;;;;;;;;;;;;;;;;;;;;;;;;;;;;;;;;;;;;;;;;;;;;;;;;;;;;;;;;;;;13,1;ppm;INAA;26,9;ppm;INAA;;;;13;ppm;INAA;3,9;ppm;INAA;1,26;ppm;INAA;;;;0,71;ppm;INAA;;;;;;;;;;;;;2,39;ppm;INAA;0,35;ppm;INAA;0,02;ppm;TITR;;;;0,06;ppm;INAA;;;;;;;;;;;;;;;;;;;;;;1,2;ppm;INAA;;;;8,9;ppm;ES;208;ppm;Unknown;;;;;;;;;;;;;41;ppm;Unknown;18;ppm;Unknown;1;ppm;INAA;114;ppm;Unknown;;;;;;;2,85;ppm;INAA;;;;;;;;;;;;;;;;;;;;;;8,8;ppm;ICP;38;ppm;Unknown;;;;;;;;;;10;ppm;Unknown;7,2;ppm;Unknown;25;ppm;Unknown;;;;;;;0,5;ppm;ICPMS;0,02;ppm;INAA;0,15;ppm;INAA;33;ppm;INAA;;;;221;ppm;Unknown;0,65;ppm;INAA;2,5;ppm;INAA;;;;;;;0,67;ppm;INAA;;;;;;;25;ppm;Unknown;70;ppm;Unknown;107;ppm;Unknown;;;;;;;;;;;;;;;;;;;;;;;;;1,2;ppm;INAA;1,2;ppm;INAA;;;;0,15;wt%;TITR;0,62;wt%;TITR;0,15;wt%;TITR;0,62;wt%;TITR;;;
GROSCAMP-W-241396;;GROSSMAN-CAMP;GROSSMAN, 1991;40,2;-76,8722;0,001;;;CONTINENTAL_RIFT;;;;"AAS; COL; ES; ICP; INAA; TITR; Unknown";WHOLE ROCK;IGNEOUS:VOLCANIC:MAFIC;DIABASE;;52,9;wt%;COL;1,27;wt%;COL;16,9;wt%;COL;;;;2,71;wt%;Unknown;;;;8,16;wt%;TITR;;;;;;;0,16;wt%;AAS;4,41;wt%;AAS;10,7;wt%;Unknown;;;;2,74;wt%;Unknown;0,72;wt%;AAS;0,14;wt%;COL;;;;;;;;;;0,15;wt%;TITR;0,56;wt%;TITR;;;;;;;;;;35;ppm;Unknown;42;ppm;Unknown;92;ppm;Unknown;;;;68;ppm;Unknown;1,3;ppm;INAA;;;;0,01;ppm;INAA;;;;;;;;;;;;;;;;;;;;;;;;;;;;;;;;;;;;;;;;;;;;;;;;;;;;;;;;;;;;;;;;;;;;;;;;;;;;;;;;;;;;;;;;;;;;;;;;;;;;;;;;;;;;;;;;;;;;;;;;;12,6;ppm;INAA;27;ppm;INAA;;;;13;ppm;INAA;3,9;ppm;INAA;1,23;ppm;INAA;;;;0,73;ppm;INAA;;;;;;;;;;;;;2,41;ppm;INAA;0,33;ppm;INAA;0,08;ppm;TITR;0,01;ppm;INAA;0,04;ppm;INAA;;;;;;;;;;;;;;;;;;;;;;1,3;ppm;INAA;;;;6,5;ppm;ES;195;ppm;Unknown;;;;;;;;;;;;;42;ppm;Unknown;18;ppm;Unknown;1,1;ppm;INAA;92;ppm;Unknown;;;;;;;2,65;ppm;INAA;;;;;;;;;;;;;;;;;;;;;;8,7;ppm;ICP;35;ppm;Unknown;;;;;;;;;;12;ppm;Unknown;8,8;ppm;Unknown;20;ppm;Unknown;;;;0,5;ppm;Unknown;;;;0,01;ppm;INAA;0,14;ppm;INAA;33;ppm;INAA;;;;232;ppm;Unknown;0,62;ppm;INAA;2,7;ppm;INAA;;;;;;;0,6;ppm;INAA;;;;;;;27;ppm;Unknown;68;ppm;Unknown;100;ppm;Unknown;;;;;;;;;;;;;;;;;;;;;;;;;1,3;ppm;INAA;1,3;ppm;INAA;;;;0,15;wt%;TITR;0,56;wt%;TITR;0,15;wt%;TITR;0,56;wt%;TITR;;;
GROSCAMP-W-241397;;GROSSMAN-CAMP;GROSSMAN, 1991;40,2;-76,8722;0,001;;;CONTINENTAL_RIFT;;;;"AAS; COL; ES; ICP; INAA; TITR; Unknown";WHOLE ROCK;IGNEOUS:VOLCANIC:MAFIC;DIABASE;;52,5;wt%;COL;1,25;wt%;COL;17,5;wt%;COL;;;;2,21;wt%;Unknown;;;;7,92;wt%;TITR;;;;;;;0,15;wt%;AAS;4,06;wt%;AAS;10,5;wt%;Unknown;;;;2,87;wt%;Unknown;0,8;wt%;AAS;0,15;wt%;COL;;;;;;;;;;0,16;wt%;TITR;0,57;wt%;TITR;;;;;;;;;;36;ppm;Unknown;38;ppm;Unknown;107;ppm;Unknown;;;;69;ppm;Unknown;1,4;ppm;INAA;;;;0,02;ppm;INAA;;;;;;;;;;;;;;;;;;;;;;;;;;;;;;;;;;;;;;;;;;;;;;;;;;;;;;;;;;;;;;;;;;;;;;;;;;;;;;;;;;;;;;;;;;;;;;;;;;;;;;;;;;;;;;;;;;;;;;;;;12,1;ppm;INAA;24;ppm;INAA;;;;13;ppm;INAA;3,7;ppm;INAA;1,2;ppm;INAA;;;;0,67;ppm;INAA;;;;;;;;;;;;;2,2;ppm;INAA;0,32;ppm;INAA;0,02;ppm;TITR;0,01;ppm;INAA;0,1;ppm;INAA;;;;;;;;;;;;;;;;;;;;;;1,4;ppm;INAA;;;;5,2;ppm;ES;199;ppm;Unknown;;;;;;;;;;;;;38;ppm;Unknown;19;ppm;Unknown;0,97;ppm;INAA;107;ppm;Unknown;;;;;;;2,63;ppm;INAA;;;;;;;;;;;;;;;;;;;;;;8,3;ppm;ICP;36;ppm;Unknown;;;;;;;;;;12;ppm;Unknown;7,3;ppm;Unknown;19;ppm;Unknown;;;;0,5;ppm;Unknown;;;;0,02;ppm;INAA;0,2;ppm;INAA;30;ppm;INAA;;;;231;ppm;Unknown;0,55;ppm;INAA;2,4;ppm;INAA;;;;;;;0,46;ppm;INAA;;;;;;;19;ppm;Unknown;69;ppm;Unknown;103;ppm;Unknown;;;;;;;;;;;;;;;;;;;;;;;;;1,4;ppm;INAA;1,4;ppm;INAA;;;;0,16;wt%;TITR;0,57;wt%;TITR;0,16;wt%;TITR;0,57;wt%;TITR;;;
GROSCAMP-W-241398;;GROSSMAN-CAMP;GROSSMAN, 1991;40,2;-76,8722;0,001;;;CONTINENTAL_RIFT;;;;"AAS; COL; ES; ICP; INAA; TITR; Unknown";WHOLE ROCK;IGNEOUS:VOLCANIC:MAFIC;DIABASE;;52,9;wt%;COL;1,22;wt%;COL;17,2;wt%;COL;;;;2,3;wt%;Unknown;;;;7,79;wt%;TITR;;;;;;;0,15;wt%;AAS;4,36;wt%;AAS;10,7;wt%;Unknown;;;;2,74;wt%;Unknown;0,78;wt%;AAS;0,14;wt%;COL;;;;;;;;;;0,13;wt%;TITR;0,58;wt%;TITR;;;;;;;;;;38;ppm;Unknown;39;ppm;Unknown;101;ppm;Unknown;;;;72;ppm;Unknown;1,8;ppm;INAA;;;;0,02;ppm;INAA;;;;;;;;;;;;;;;;;;;;;;;;;;;;;;;;;;;;;;;;;;;;;;;;;;;;;;;;;;;;;;;;;;;;;;;;;;;;;;;;;;;;;;;;;;;;;;;;;;;;;;;;;;;;;;;;;;;;;;;;;12,2;ppm;INAA;25;ppm;INAA;;;;13;ppm;INAA;3,7;ppm;INAA;1,19;ppm;INAA;;;;0,63;ppm;INAA;;;;;;;;;;;;;2,27;ppm;INAA;0,34;ppm;INAA;0,02;ppm;TITR;0,02;ppm;INAA;0,04;ppm;INAA;;;;;;;;;;;;;;;;;;;;;;1,8;ppm;INAA;;;;34;ppm;ES;207;ppm;Unknown;;;;;;;;;;;;;39;ppm;Unknown;20;ppm;Unknown;1;ppm;INAA;101;ppm;Unknown;;;;;;;2,7;ppm;INAA;;;;;;;;;;;;;;;;;;;;;;8;ppm;ICP;38;ppm;Unknown;;;;;;;;;;10;ppm;Unknown;7,7;ppm;Unknown;25;ppm;Unknown;;;;;;;;;;0,02;ppm;INAA;0,21;ppm;INAA;31;ppm;INAA;;;;231;ppm;Unknown;0,56;ppm;INAA;2,4;ppm;INAA;;;;;;;0,51;ppm;INAA;;;;;;;30;ppm;Unknown;72;ppm;Unknown;107;ppm;Unknown;;;;;;;;;;;;;;;;;;;;;;;;;1,8;ppm;INAA;1,8;ppm;INAA;;;;0,13;wt%;TITR;0,58;wt%;TITR;0,13;wt%;TITR;0,58;wt%;TITR;;;