SAMPLE ID;IGSN;EXPEDITION ID;REFERENCES;LATITUDE;LONGITUDE;LOC PREC;MIN ELEVATION;MAX ELEVATION;TECTONIC SETTING;MIN AGE;AGE;MAX AGE;METHOD;ANALYZED MATERIAL;ROCK TYPE;ROCK NAME;MINERAL;SIO2;SIO2 Units;SIO2 Method;TIO2;TIO2 Units;TIO2 Method;AL2O3;AL2O3 Units;AL2O3 Method;CR2O3;CR2O3 Units;CR2O3 Method;FE2O3;FE2O3 Units;FE2O3 Method;FE2O3T;FE2O3T Units;FE2O3T Method;FEO;FEO Units;FEO Method;FEOT;FEOT Units;FEOT Method;NIO;NIO Units;NIO Method;MNO;MNO Units;MNO Method;MGO;MGO Units;MGO Method;CAO;CAO Units;CAO Method;SRO;SRO Units;SRO Method;NA2O;NA2O Units;NA2O Method;K2O;K2O Units;K2O Method;P2O5;P2O5 Units;P2O5 Method;BAO;BAO Units;BAO Method;LOI;LOI Units;LOI Method;H2O;H2O Units;H2O Method;H2O_M;H2O_M Units;H2O_M Method;H2O_P;H2O_P Units;H2O_P Method;SO3;SO3 Units;SO3 Method;COO;COO Units;COO Method;MN;MN Units;MN Method;NI;NI Units;NI Method;CO;CO Units;CO Method;CU;CU Units;CU Method;CD;CD Units;CD Method;ZN;ZN Units;ZN Method;AS;AS Units;AS Method;AG;AG Units;AG Method;S;S Units;S Method;ZRO2;ZRO2 Units;ZRO2 Method;AL;AL Units;AL Method;CA;CA Units;CA Method;SR87_SR86;SR87_SR86 Units;SR87_SR86 Method;SR87_SR86_INI;SR87_SR86_INI Units;SR87_SR86_INI Method;RB87_SR86;RB87_SR86 Units;RB87_SR86 Method;ND143_ND144;ND143_ND144 Units;ND143_ND144 Method;ND143_ND144_INI;ND143_ND144_INI Units;ND143_ND144_INI Method;SM147_ND144;SM147_ND144 Units;SM147_ND144 Method;E_ND;E_ND Units;E_ND Method;E_ND_INI;E_ND_INI Units;E_ND_INI Method;PB204_PB206;PB204_PB206 Units;PB204_PB206 Method;PB206_PB204;PB206_PB204 Units;PB206_PB204 Method;PB206_PB204_INI;PB206_PB204_INI Units;PB206_PB204_INI Method;PB207_PB204;PB207_PB204 Units;PB207_PB204 Method;PB207_PB204_INI;PB207_PB204_INI Units;PB207_PB204_INI Method;PB207_PB206;PB207_PB206 Units;PB207_PB206 Method;PB208_PB204;PB208_PB204 Units;PB208_PB204 Method;PB208_PB204_INI;PB208_PB204_INI Units;PB208_PB204_INI Method;PB208_PB206;PB208_PB206 Units;PB208_PB206 Method;HF176_HF177;HF176_HF177 Units;HF176_HF177 Method;RE187_OS188;RE187_OS188 Units;RE187_OS188 Method;OS187_OS188;OS187_OS188 Units;OS187_OS188 Method;OS187_OS188_INI;OS187_OS188_INI Units;OS187_OS188_INI Method;G_OS;G_OS Units;G_OS Method;G_OS_INI;G_OS_INI Units;G_OS_INI Method;ND143_ND144_INI;ND143_ND144_INI Units;ND143_ND144_INI Method;PB206_PB204_INI;PB206_PB204_INI Units;PB206_PB204_INI Method;PB207_PB204_INI;PB207_PB204_INI Units;PB207_PB204_INI Method;PB208_PB204_INI;PB208_PB204_INI Units;PB208_PB204_INI Method;SR87_SR86_INI;SR87_SR86_INI Units;SR87_SR86_INI Method;HE;HE Units;HE Method;HE3;HE3 Units;HE3 Method;HE3_HE4_R_RA;HE3_HE4_R_RA Units;HE3_HE4_R_RA Method;AR36;AR36 Units;AR36 Method;AR40;AR40 Units;AR40 Method;AR40_AR36;AR40_AR36 Units;AR40_AR36 Method;NE20;NE20 Units;NE20 Method;NE20_NE22;NE20_NE22 Units;NE20_NE22 Method;NE21_NE22;NE21_NE22 Units;NE21_NE22 Method;LA;LA Units;LA Method;CE;CE Units;CE Method;PR;PR Units;PR Method;ND;ND Units;ND Method;SM;SM Units;SM Method;EU;EU Units;EU Method;GD;GD Units;GD Method;TB;TB Units;TB Method;DY;DY Units;DY Method;HO;HO Units;HO Method;ER;ER Units;ER Method;TM;TM Units;TM Method;YB;YB Units;YB Method;LU;LU Units;LU Method;CO2;CO2 Units;CO2 Method;F;F Units;F Method;CL;CL Units;CL Method;U238_PB204;U238_PB204 Units;U238_PB204 Method;TH230_TH232;TH230_TH232 Units;TH230_TH232 Method;RA226_ACTIVITY;RA226_ACTIVITY Units;RA226_ACTIVITY Method;PB210_RA226;PB210_RA226 Units;PB210_RA226 Method;PB210_ACTIVITY;PB210_ACTIVITY Units;PB210_ACTIVITY Method;AG;AG Units;AG Method;AL;AL Units;AL Method;AS;AS Units;AS Method;AU;AU Units;AU Method;B;B Units;B Method;BA;BA Units;BA Method;BE;BE Units;BE Method;BI;BI Units;BI Method;CA;CA Units;CA Method;CD;CD Units;CD Method;CO;CO Units;CO Method;CR;CR Units;CR Method;CS;CS Units;CS Method;CU;CU Units;CU Method;GA;GA Units;GA Method;GER;GER Units;GER Method;HF;HF Units;HF Method;INDIUM;INDIUM Units;INDIUM Method;IR;IR Units;IR Method;K;K Units;K Method;LI;LI Units;LI Method;MN;MN Units;MN Method;MO;MO Units;MO Method;NA;NA Units;NA Method;NB;NB Units;NB Method;NI;NI Units;NI Method;OS;OS Units;OS Method;P;P Units;P Method;PB;PB Units;PB Method;PD;PD Units;PD Method;PT;PT Units;PT Method;RB;RB Units;RB Method;RE;RE Units;RE Method;RH;RH Units;RH Method;RU;RU Units;RU Method;S;S Units;S Method;SB;SB Units;SB Method;SC;SC Units;SC Method;SN;SN Units;SN Method;SR;SR Units;SR Method;TA;TA Units;TA Method;TH;TH Units;TH Method;TI;TI Units;TI Method;TL;TL Units;TL Method;U;U Units;U Method;V;V Units;V Method;W;W Units;W Method;Y;Y Units;Y Method;ZN;ZN Units;ZN Method;ZR;ZR Units;ZR Method;DELTA_O18;DELTA_O18 Units;DELTA_O18 Method;DELTA_C13;DELTA_C13 Units;DELTA_C13 Method;DELTA_MO98;DELTA_MO98 Units;DELTA_MO98 Method;DELTA_ZN66;DELTA_ZN66 Units;DELTA_ZN66 Method;DELTA_ZN68;DELTA_ZN68 Units;DELTA_ZN68 Method;OS188;OS188 Units;OS188 Method;FE3P_FET;FE3P_FET Units;FE3P_FET Method;TI;TI Units;TI Method;AS;AS Units;AS Method;AS;AS Units;AS Method;GER;GER Units;GER Method;H2O_M;H2O_M Units;H2O_M Method;H2O_P;H2O_P Units;H2O_P Method;H2O_M;H2O_M Units;H2O_M Method;H2O_P;H2O_P Units;H2O_P Method;INDIUM;INDIUM Units;INDIUM Method
GROSCAMP-W-238456;;GROSSMAN-CAMP;GROSSMAN, 1991;39,725;-77,3097;0,001;;;CONTINENTAL_RIFT;;;;"AAS; COL; ICP; ICPMS; INAA; TITR; Unknown";WHOLE ROCK;IGNEOUS:VOLCANIC:MAFIC;DIABASE;;51,7;wt%;COL;0,97;wt%;COL;13,9;wt%;COL;;;;2,04;wt%;Unknown;;;;8,2;wt%;TITR;;;;;;;0,17;wt%;AAS;9,13;wt%;AAS;11,3;wt%;Unknown;;;;2,05;wt%;Unknown;0,51;wt%;AAS;0,13;wt%;COL;;;;;;;;;;0,15;wt%;TITR;0,7;wt%;TITR;;;;;;;;;;130;ppm;Unknown;50;ppm;Unknown;96;ppm;Unknown;;;;61;ppm;Unknown;;;;;;;;;;;;;;;;;;;;;;;;;;;;;;;;;;;;;;;;;;;;;;;;;;;;;;;;;;;;;;;;;;;;;;;;;;;;;;;;;;;;;;;;;;;;;;;;;;;;;;;;;;;;;;;;;;;;;;;;;;;;;;;;;;9,2;ppm;INAA;20;ppm;INAA;;;;11;ppm;INAA;3;ppm;INAA;0,94;ppm;INAA;;;;0,57;ppm;INAA;;;;;;;;;;;;;1,8;ppm;INAA;0,29;ppm;INAA;0,01;ppm;TITR;0,02;ppm;INAA;0,01;ppm;INAA;;;;;;;;;;;;;;;;;;;;;;;;;;;;;;;142;ppm;Unknown;;;;;;;;;;;;;50;ppm;Unknown;580;ppm;Unknown;1;ppm;INAA;96;ppm;Unknown;;;;;;;2,1;ppm;INAA;;;;1,2;ppm;ICPMS;;;;;;;;;;;;;;;;6;ppm;ICP;130;ppm;Unknown;;;;;;;;;;9,6;ppm;Unknown;22;ppm;Unknown;25;ppm;Unknown;;;;1;ppm;Unknown;1;ppm;ICPMS;;;;0,14;ppm;INAA;37;ppm;INAA;;;;179;ppm;Unknown;0,43;ppm;INAA;1,9;ppm;INAA;;;;;;;0,35;ppm;INAA;;;;;;;18;ppm;Unknown;61;ppm;Unknown;82;ppm;Unknown;;;;;;;;;;;;;;;;;;;;;;;;;;;;;;;;;;0,15;wt%;TITR;0,7;wt%;TITR;0,15;wt%;TITR;0,7;wt%;TITR;;;
GROSCAMP-W-238457;;GROSSMAN-CAMP;GROSSMAN, 1991;40,1944;-76,8778;0,001;;;CONTINENTAL_RIFT;;;;"AAS; COL; ICP; ICPMS; INAA; TITR; Unknown";WHOLE ROCK;IGNEOUS:VOLCANIC:MAFIC;DIABASE;;52,5;wt%;COL;1,36;wt%;COL;14,7;wt%;COL;;;;2,88;wt%;Unknown;;;;8,6;wt%;TITR;;;;;;;0,18;wt%;AAS;5,69;wt%;AAS;10,3;wt%;Unknown;;;;2,37;wt%;Unknown;0,76;wt%;AAS;0,16;wt%;COL;;;;;;;;;;0,28;wt%;TITR;0,73;wt%;TITR;;;;;;;;;;68;ppm;Unknown;46;ppm;Unknown;93;ppm;Unknown;;;;79;ppm;Unknown;;;;;;;0,01;ppm;INAA;;;;;;;;;;;;;;;;;;;;;;;;;;;;;;;;;;;;;;;;;;;;;;;;;;;;;;;;;;;;;;;;;;;;;;;;;;;;;;;;;;;;;;;;;;;;;;;;;;;;;;;;;;;;;;;;;;;;;;;;;13,1;ppm;INAA;29;ppm;INAA;;;;16;ppm;INAA;4;ppm;INAA;1,2;ppm;INAA;;;;0,75;ppm;INAA;;;;;;;;;;;;;2,5;ppm;INAA;0,37;ppm;INAA;0,02;ppm;TITR;0,03;ppm;INAA;0,06;ppm;INAA;;;;;;;;;;;;;;;;;;;;;;;;;;;;;;;219;ppm;Unknown;;;;;;;;;;;;;46;ppm;Unknown;75;ppm;Unknown;1,2;ppm;INAA;93;ppm;Unknown;;;;;;;3,1;ppm;INAA;;;;;;;;;;;;;;;;;;;;;;8,5;ppm;ICP;68;ppm;Unknown;;;;;;;;;;13;ppm;Unknown;10;ppm;Unknown;25;ppm;Unknown;;;;;;;1;ppm;ICPMS;0,01;ppm;INAA;0,16;ppm;INAA;36;ppm;INAA;;;;208;ppm;Unknown;0,65;ppm;INAA;2,7;ppm;INAA;;;;;;;0,61;ppm;INAA;;;;;;;29;ppm;Unknown;79;ppm;Unknown;116;ppm;Unknown;;;;;;;;;;;;;;;;;;;;;;;;;;;;;;;;;;0,28;wt%;TITR;0,73;wt%;TITR;0,28;wt%;TITR;0,73;wt%;TITR;;;
GROSCAMP-W-238458;;GROSSMAN-CAMP;GROSSMAN, 1991;40,1944;-76,8778;0,001;;;CONTINENTAL_RIFT;;;;"AAS; COL; ICP; ICPMS; INAA; TITR; Unknown";WHOLE ROCK;IGNEOUS:VOLCANIC:MAFIC;DIABASE;;52,4;wt%;COL;1,15;wt%;COL;14;wt%;COL;;;;3,2;wt%;Unknown;;;;7,8;wt%;TITR;;;;;;;0,18;wt%;AAS;7,19;wt%;AAS;11;wt%;Unknown;;;;2,12;wt%;Unknown;0,58;wt%;AAS;0,14;wt%;COL;;;;;;;;;;0,21;wt%;TITR;0,37;wt%;TITR;;;;;;;;;;91;ppm;Unknown;46;ppm;Unknown;105;ppm;Unknown;;;;75;ppm;Unknown;;;;;;;0,01;ppm;INAA;;;;;;;;;;;;;;;;;;;;;;;;;;;;;;;;;;;;;;;;;;;;;;;;;;;;;;;;;;;;;;;;;;;;;;;;;;;;;;;;;;;;;;;;;;;;;;;;;;;;;;;;;;;;;;;;;;;;;;;;;11;ppm;INAA;23;ppm;INAA;;;;15;ppm;INAA;3,6;ppm;INAA;1,1;ppm;INAA;;;;0,51;ppm;INAA;;;;;;;;;;;;;1,9;ppm;INAA;0,35;ppm;INAA;0,01;ppm;TITR;0,02;ppm;INAA;0,02;ppm;INAA;;;;;;;;;;;;;;;;;;;;;;;;;;;;;;;197;ppm;Unknown;;;;;;;;;;;;;46;ppm;Unknown;279;ppm;Unknown;0,97;ppm;INAA;105;ppm;Unknown;;;;;;;2,5;ppm;INAA;;;;;;;;;;;;;;;;;;;;;;6,1;ppm;ICP;91;ppm;Unknown;;;;;;;;;;5,9;ppm;Unknown;9,1;ppm;Unknown;22;ppm;Unknown;;;;;;;0,5;ppm;ICPMS;0,01;ppm;INAA;;;;37;ppm;INAA;;;;185;ppm;Unknown;0,52;ppm;INAA;2,2;ppm;INAA;;;;;;;0,48;ppm;INAA;;;;;;;25;ppm;Unknown;75;ppm;Unknown;103;ppm;Unknown;;;;;;;;;;;;;;;;;;;;;;;;;;;;;;;;;;0,21;wt%;TITR;0,37;wt%;TITR;0,21;wt%;TITR;0,37;wt%;TITR;;;
GROSCAMP-W-238459;;GROSSMAN-CAMP;GROSSMAN, 1991;40,0947;-77,9731;0,001;;;CONTINENTAL_RIFT;;;;"AAS; COL; ICP; INAA; TITR; Unknown";WHOLE ROCK;IGNEOUS:VOLCANIC:MAFIC;DIABASE;;66,9;wt%;COL;0,91;wt%;COL;12,1;wt%;COL;;;;5,5;wt%;Unknown;;;;3,7;wt%;TITR;;;;;;;0,08;wt%;AAS;0,38;wt%;AAS;1,71;wt%;Unknown;;;;3,95;wt%;Unknown;3,16;wt%;AAS;0,21;wt%;COL;;;;;;;;;;0,35;wt%;TITR;0,87;wt%;TITR;;;;;;;;;;;;;9;ppm;Unknown;89;ppm;Unknown;;;;102;ppm;Unknown;3,8;ppm;INAA;;;;;;;;;;;;;;;;;;;;;;;;;;;;;;;;;;;;;;;;;;;;;;;;;;;;;;;;;;;;;;;;;;;;;;;;;;;;;;;;;;;;;;;;;;;;;;;;;;;;;;;;;;;;;;;;;;;;;;;;;;;;;;;96;ppm;INAA;140;ppm;INAA;;;;99;ppm;INAA;24;ppm;INAA;4,6;ppm;INAA;;;;4,1;ppm;INAA;;;;;;;;;;;;;10,9;ppm;INAA;1,39;ppm;INAA;;;;0,06;ppm;INAA;0,14;ppm;INAA;;;;;;;;;;;;;;;;;;;;;;3,8;ppm;INAA;;;;;;;770;ppm;Unknown;;;;;;;;;;;;;9;ppm;Unknown;;;;0,34;ppm;INAA;89;ppm;Unknown;;;;;;;12,9;ppm;INAA;;;;;;;;;;;;;;;;;;;;;;30;ppm;ICP;;;;;;;;;;;;;;;;0,8;ppm;Unknown;83;ppm;Unknown;;;;;;;;;;;;;0,77;ppm;INAA;13,2;ppm;INAA;;;;74;ppm;Unknown;2,39;ppm;INAA;13;ppm;INAA;;;;;;;3,3;ppm;INAA;;;;;;;120;ppm;Unknown;102;ppm;Unknown;490;ppm;Unknown;;;;;;;;;;;;;;;;;;;;;;;;;3,8;ppm;INAA;3,8;ppm;INAA;;;;0,35;wt%;TITR;0,87;wt%;TITR;0,35;wt%;TITR;0,87;wt%;TITR;;;
GROSCAMP-W-238460;;GROSSMAN-CAMP;GROSSMAN, 1991;38,5153;-77,5375;0,001;;;CONTINENTAL_RIFT;;;;"AAS; COL; ICP; ICPMS; INAA; TITR; Unknown";WHOLE ROCK;IGNEOUS:VOLCANIC:MAFIC;DIABASE;;52,6;wt%;COL;1,54;wt%;COL;15,7;wt%;COL;;;;2,61;wt%;Unknown;;;;8,2;wt%;TITR;;;;;;;0,22;wt%;AAS;4,17;wt%;AAS;8,52;wt%;Unknown;;;;3,18;wt%;Unknown;1,44;wt%;AAS;0,19;wt%;COL;;;;;;;;;;0,26;wt%;TITR;1,5;wt%;TITR;;;;;;;;;;25;ppm;Unknown;39;ppm;Unknown;90;ppm;Unknown;;;;85;ppm;Unknown;6;ppm;INAA;;;;0,01;ppm;INAA;;;;;;;;;;;;;;;;;;;;;;;;;;;;;;;;;;;;;;;;;;;;;;;;;;;;;;;;;;;;;;;;;;;;;;;;;;;;;;;;;;;;;;;;;;;;;;;;;;;;;;;;;;;;;;;;;;;;;;;;;15,9;ppm;INAA;33;ppm;INAA;;;;19;ppm;INAA;4,8;ppm;INAA;1,3;ppm;INAA;;;;0,82;ppm;INAA;;;;;;;;;;;;;2,8;ppm;INAA;0,43;ppm;INAA;0,04;ppm;TITR;0,03;ppm;INAA;0,09;ppm;INAA;;;;;;;;;;;;;;;;;;;;;;6;ppm;INAA;;;;;;;330;ppm;Unknown;;;;;;;;;;;;;39;ppm;Unknown;13;ppm;Unknown;1,1;ppm;INAA;90;ppm;Unknown;;;;;;;3,5;ppm;INAA;;;;;;;;;;;;;;;;;;;;;;11;ppm;ICP;25;ppm;Unknown;;;;;;;;;;14;ppm;Unknown;7;ppm;Unknown;61;ppm;Unknown;;;;;;;0,5;ppm;ICPMS;0,01;ppm;INAA;0,28;ppm;INAA;33;ppm;INAA;;;;300;ppm;Unknown;0,77;ppm;INAA;3,4;ppm;INAA;;;;;;;0,77;ppm;INAA;;;;;;;30;ppm;Unknown;85;ppm;Unknown;138;ppm;Unknown;;;;;;;;;;;;;;;;;;;;;;;;;6;ppm;INAA;6;ppm;INAA;;;;0,26;wt%;TITR;1,5;wt%;TITR;0,26;wt%;TITR;1,5;wt%;TITR;;;
GROSCAMP-W-238461;;GROSSMAN-CAMP;GROSSMAN, 1991;40,0972;-78,9639;0,001;;;CONTINENTAL_RIFT;;;;"AAS; COL; ICP; ICPMS; INAA; TITR; Unknown";WHOLE ROCK;IGNEOUS:VOLCANIC:MAFIC;DIABASE;;50,5;wt%;COL;2,93;wt%;COL;11,4;wt%;COL;;;;7,13;wt%;Unknown;;;;11,6;wt%;TITR;;;;;;;0,24;wt%;AAS;2,32;wt%;AAS;7,44;wt%;Unknown;;;;2,74;wt%;Unknown;1,23;wt%;AAS;1,16;wt%;COL;;;;;;;;;;0,38;wt%;TITR;1;wt%;TITR;;;;;;;;;;5,6;ppm;Unknown;45;ppm;Unknown;850;ppm;Unknown;;;;86;ppm;Unknown;1,8;ppm;INAA;;;;0,03;ppm;INAA;;;;;;;;;;;;;;;;;;;;;;;;;;;;;;;;;;;;;;;;;;;;;;;;;;;;;;;;;;;;;;;;;;;;;;;;;;;;;;;;;;;;;;;;;;;;;;;;;;;;;;;;;;;;;;;;;;;;;;;;;29,2;ppm;INAA;62;ppm;INAA;;;;42;ppm;INAA;10,3;ppm;INAA;2,7;ppm;INAA;;;;1,7;ppm;INAA;;;;;;;;;;;;;5,2;ppm;INAA;0,71;ppm;INAA;;;;0,1;ppm;INAA;0,21;ppm;INAA;;;;;;;;;;;;;;;;;;;;;;1,8;ppm;INAA;;;;;;;350;ppm;Unknown;;;;;;;;;;;;;45;ppm;Unknown;4,6;ppm;Unknown;1,1;ppm;INAA;850;ppm;Unknown;;;;;;;5,3;ppm;INAA;;;;;;;;;;;;;;;;;;;;;;20;ppm;ICP;5,6;ppm;Unknown;;;;;;;;;;2;ppm;Unknown;1,9;ppm;Unknown;51;ppm;Unknown;;;;;;;0,5;ppm;ICPMS;0,03;ppm;INAA;0,32;ppm;INAA;35;ppm;INAA;;;;230;ppm;Unknown;1,4;ppm;INAA;5,1;ppm;INAA;;;;;;;1,1;ppm;INAA;;;;;;;61;ppm;Unknown;86;ppm;Unknown;195;ppm;Unknown;;;;;;;;;;;;;;;;;;;;;;;;;1,8;ppm;INAA;1,8;ppm;INAA;;;;0,38;wt%;TITR;1;wt%;TITR;0,38;wt%;TITR;1;wt%;TITR;;;
GROSCAMP-W-238462;;GROSSMAN-CAMP;GROSSMAN, 1991;39,7333;-77,3653;0,001;;;CONTINENTAL_RIFT;;;;"AAS; COL; ICP; INAA; TITR; Unknown";WHOLE ROCK;IGNEOUS:VOLCANIC:MAFIC;DIABASE;;60,7;wt%;COL;1,52;wt%;COL;11,8;wt%;COL;;;;6,3;wt%;Unknown;;;;6,9;wt%;TITR;;;;;;;0,15;wt%;AAS;0,93;wt%;AAS;3,11;wt%;Unknown;;;;4,52;wt%;Unknown;2,02;wt%;AAS;0,52;wt%;COL;;;;;;;;;;0,44;wt%;TITR;1,2;wt%;TITR;;;;;;;;;;8;ppm;Unknown;19,6;ppm;Unknown;320;ppm;Unknown;;;;156;ppm;Unknown;3;ppm;INAA;;;;;;;;;;;;;;;;;;;;;;;;;;;;;;;;;;;;;;;;;;;;;;;;;;;;;;;;;;;;;;;;;;;;;;;;;;;;;;;;;;;;;;;;;;;;;;;;;;;;;;;;;;;;;;;;;;;;;;;;;;;;;;;56;ppm;INAA;93;ppm;INAA;;;;61;ppm;INAA;16,2;ppm;INAA;4,5;ppm;INAA;;;;3;ppm;INAA;;;;;;;;;;;;;10,3;ppm;INAA;1,36;ppm;INAA;0,01;ppm;TITR;0,1;ppm;INAA;0,24;ppm;INAA;;;;;;;;;;;;;;;;;;;;;;3;ppm;INAA;;;;;;;560;ppm;Unknown;;;;;;;;;;;;;19,6;ppm;Unknown;;;;1,1;ppm;INAA;320;ppm;Unknown;;;;;;;9,4;ppm;INAA;;;;;;;;;;;;;;;;;;;;;;26;ppm;ICP;8;ppm;Unknown;;;;;;;;;;;;;;;;58;ppm;Unknown;;;;;;;;;;;;;0,45;ppm;INAA;21,7;ppm;INAA;;;;151;ppm;Unknown;2,02;ppm;INAA;9,7;ppm;INAA;;;;;;;1,5;ppm;INAA;;;;;;;104;ppm;Unknown;156;ppm;Unknown;350;ppm;Unknown;;;;;;;;;;;;;;;;;;;;;;;;;3;ppm;INAA;3;ppm;INAA;;;;0,44;wt%;TITR;1,2;wt%;TITR;0,44;wt%;TITR;1,2;wt%;TITR;;;
GROSCAMP-W-238463;;GROSSMAN-CAMP;GROSSMAN, 1991;40,0972;-78,9714;0,001;;;CONTINENTAL_RIFT;;;;"AAS; COL; ICP; INAA; TITR; Unknown";WHOLE ROCK;IGNEOUS:VOLCANIC:MAFIC;DIABASE;;62,3;wt%;COL;1,43;wt%;COL;12;wt%;COL;;;;5,72;wt%;Unknown;;;;6,5;wt%;TITR;;;;;;;0,15;wt%;AAS;0,78;wt%;AAS;4,62;wt%;Unknown;;;;3,3;wt%;Unknown;2,49;wt%;AAS;0,48;wt%;COL;;;;;;;;;;0,27;wt%;TITR;0,59;wt%;TITR;;;;;;;;;;;;;18,8;ppm;Unknown;259;ppm;Unknown;;;;135;ppm;Unknown;2,8;ppm;INAA;;;;0,03;ppm;INAA;;;;;;;;;;;;;;;;;;;;;;;;;;;;;;;;;;;;;;;;;;;;;;;;;;;;;;;;;;;;;;;;;;;;;;;;;;;;;;;;;;;;;;;;;;;;;;;;;;;;;;;;;;;;;;;;;;;;;;;;;46;ppm;INAA;95;ppm;INAA;;;;50;ppm;INAA;12,8;ppm;INAA;2,99;ppm;INAA;;;;2,2;ppm;INAA;;;;;;;;;;;;;7,5;ppm;INAA;1;ppm;INAA;0,01;ppm;TITR;0,08;ppm;INAA;0,13;ppm;INAA;;;;;;;;;;;;;;;;;;;;;;2,8;ppm;INAA;;;;;;;630;ppm;Unknown;;;;;;;;;;;;;18,8;ppm;Unknown;;;;1,7;ppm;INAA;259;ppm;Unknown;;;;;;;10,5;ppm;INAA;;;;;;;;;;;;;;;;;;;;;;30;ppm;ICP;;;;;;;;;;;;;;;;0,6;ppm;Unknown;84;ppm;Unknown;;;;;;;;;;0,03;ppm;INAA;0,28;ppm;INAA;22,4;ppm;INAA;;;;193;ppm;Unknown;2,1;ppm;INAA;10;ppm;INAA;;;;;;;2,1;ppm;INAA;;;;;;;80;ppm;Unknown;135;ppm;Unknown;380;ppm;Unknown;;;;;;;;;;;;;;;;;;;;;;;;;2,8;ppm;INAA;2,8;ppm;INAA;;;;0,27;wt%;TITR;0,59;wt%;TITR;0,27;wt%;TITR;0,59;wt%;TITR;;;
GROSCAMP-W-238464;;GROSSMAN-CAMP;GROSSMAN, 1991;39,7333;-77,3653;0,001;;;CONTINENTAL_RIFT;;;;"AAS; COL; ICP; INAA; TITR; Unknown";WHOLE ROCK;IGNEOUS:VOLCANIC:MAFIC;DIABASE;;60,2;wt%;COL;1,53;wt%;COL;11,7;wt%;COL;;;;9,43;wt%;Unknown;;;;4;wt%;TITR;;;;;;;0,18;wt%;AAS;0,96;wt%;AAS;4,24;wt%;Unknown;;;;4,18;wt%;Unknown;2,4;wt%;AAS;0,56;wt%;COL;;;;;;;;;;0,25;wt%;TITR;0,44;wt%;TITR;;;;;;;;;;;;;25;ppm;Unknown;310;ppm;Unknown;;;;99;ppm;Unknown;2,7;ppm;INAA;;;;0,43;ppm;INAA;;;;;;;;;;;;;;;;;;;;;;;;;;;;;;;;;;;;;;;;;;;;;;;;;;;;;;;;;;;;;;;;;;;;;;;;;;;;;;;;;;;;;;;;;;;;;;;;;;;;;;;;;;;;;;;;;;;;;;;;;43;ppm;INAA;89;ppm;INAA;;;;47;ppm;INAA;12,4;ppm;INAA;2,93;ppm;INAA;;;;2,2;ppm;INAA;;;;;;;;;;;;;6,6;ppm;INAA;0,97;ppm;INAA;;;;0,08;ppm;INAA;0,02;ppm;INAA;;;;;;;;;;;;;;;;;;;;;;2,7;ppm;INAA;;;;;;;540;ppm;Unknown;;;;;;;;;;;;;25;ppm;Unknown;;;;0,57;ppm;INAA;310;ppm;Unknown;;;;;;;9,7;ppm;INAA;;;;;;;;;;;;;;;;;;;;;;28;ppm;ICP;;;;;;;;;;;;;;;;11;ppm;Unknown;76;ppm;Unknown;;;;;;;;;;0,43;ppm;INAA;0,38;ppm;INAA;21;ppm;INAA;;;;166;ppm;Unknown;2;ppm;INAA;9,5;ppm;INAA;;;;;;;2;ppm;INAA;;;;;;;77;ppm;Unknown;99;ppm;Unknown;370;ppm;Unknown;;;;;;;;;;;;;;;;;;;;;;;;;2,7;ppm;INAA;2,7;ppm;INAA;;;;0,25;wt%;TITR;0,44;wt%;TITR;0,25;wt%;TITR;0,44;wt%;TITR;;;
GROSCAMP-W-241506;;GROSSMAN-CAMP;GROSSMAN, 1991;40,1167;-76,7;0,001;;;CONTINENTAL_RIFT;;;;"AAS; COL; INAA; TITR; Unknown";WHOLE ROCK;IGNEOUS:VOLCANIC:MAFIC;DIABASE;;51,5;wt%;COL;0,7;wt%;COL;13;wt%;COL;;;;1;wt%;Unknown;;;;8,05;wt%;TITR;;;;;;;0,17;wt%;AAS;10,8;wt%;AAS;11,5;wt%;Unknown;;;;1,46;wt%;Unknown;0,36;wt%;AAS;0,1;wt%;COL;;;;;;;;;;;;;;;;;;;;;;;;;;;;;;;;;;;;;;;;;;;;;;0,01;ppm;INAA;;;;;;;;;;;;;;;;;;;;;;;;;;;;;;;;;;;;;;;;;;;;;;;;;;;;;;;;;;;;;;;;;;;;;;;;;;;;;;;;;;;;;;;;;;;;;;;;;;;;;;;;;;;;;;;;;;;;;;;;;;;;;;;;;;;;;;;;;;;;;;;;;;;;;;;;;;;;;;;;;;;;;;;;;0,02;ppm;INAA;;;;;;;;;;;;;;;;;;;;;;;;;;;;;;;;;;;;;;;;;;;;;;;;;;;;;;;;;;;;;;;;;;;;;;;;;;;;;;;;;;;;;;;;;;;;;;;;;;;;;;;5,8;ppm;Unknown;13;ppm;Unknown;;;;;;;;;;;;;0,01;ppm;INAA;;;;;;;;;;;;;;;;;;;;;;;;;;;;;;;;;;;;;;;;;;;;;;;;;;;;;;;;;;;;;;;;;;;;;;;;;;;;;;;;;;;;;;;;;;
GROSCAMP-W-238465;;GROSSMAN-CAMP;GROSSMAN, 1991;40,1944;-76,8778;0,001;;;CONTINENTAL_RIFT;;;;"AAS; COL; ICP; INAA; TITR; Unknown";WHOLE ROCK;IGNEOUS:VOLCANIC:MAFIC;DIABASE;;52,7;wt%;COL;1,17;wt%;COL;14;wt%;COL;;;;2,87;wt%;Unknown;;;;8,1;wt%;TITR;;;;;;;0,17;wt%;AAS;6,82;wt%;AAS;10,7;wt%;Unknown;;;;2,28;wt%;Unknown;0,67;wt%;AAS;0,12;wt%;COL;;;;;;;;;;0,36;wt%;TITR;0,65;wt%;TITR;;;;;;;;;;97;ppm;Unknown;45;ppm;Unknown;88;ppm;Unknown;;;;78;ppm;Unknown;;;;;;;0,01;ppm;INAA;;;;;;;;;;;;;;;;;;;;;;;;;;;;;;;;;;;;;;;;;;;;;;;;;;;;;;;;;;;;;;;;;;;;;;;;;;;;;;;;;;;;;;;;;;;;;;;;;;;;;;;;;;;;;;;;;;;;;;;;;12;ppm;INAA;25;ppm;INAA;;;;14;ppm;INAA;3,7;ppm;INAA;1,1;ppm;INAA;;;;0,65;ppm;INAA;;;;;;;;;;;;;2,4;ppm;INAA;0,33;ppm;INAA;0,04;ppm;TITR;0,02;ppm;INAA;0,23;ppm;INAA;;;;;;;;;;;;;;;;;;;;;;;;;;;;;;;188;ppm;Unknown;;;;;;;;;;;;;45;ppm;Unknown;217;ppm;Unknown;0,96;ppm;INAA;88;ppm;Unknown;;;;;;;2,83;ppm;INAA;;;;;;;;;;;;;;;;;;;;;;8,1;ppm;ICP;97;ppm;Unknown;;;;;;;;;;11;ppm;Unknown;12;ppm;Unknown;28;ppm;Unknown;;;;;;;;;;0,01;ppm;INAA;;;;37;ppm;INAA;;;;210;ppm;Unknown;0,55;ppm;INAA;2,6;ppm;INAA;;;;;;;0,56;ppm;INAA;;;;;;;25;ppm;Unknown;78;ppm;Unknown;108;ppm;Unknown;;;;;;;;;;;;;;;;;;;;;;;;;;;;;;;;;;0,36;wt%;TITR;0,65;wt%;TITR;0,36;wt%;TITR;0,65;wt%;TITR;;;
GROSCAMP-W-238466;;GROSSMAN-CAMP;GROSSMAN, 1991;39,7236;-77,3653;0,001;;;CONTINENTAL_RIFT;;;;"AAS; COL; ICP; INAA; TITR; Unknown";WHOLE ROCK;IGNEOUS:VOLCANIC:MAFIC;DIABASE;;52,7;wt%;COL;1,99;wt%;COL;14,4;wt%;COL;;;;3,3;wt%;Unknown;;;;9,9;wt%;TITR;;;;;;;0,19;wt%;AAS;3,16;wt%;AAS;8,3;wt%;Unknown;;;;3,22;wt%;Unknown;1,25;wt%;AAS;0,25;wt%;COL;;;;;;;;;;0,31;wt%;TITR;1;wt%;TITR;;;;;;;;;;13;ppm;Unknown;41;ppm;Unknown;168;ppm;Unknown;;;;118;ppm;Unknown;1,8;ppm;INAA;;;;0,02;ppm;INAA;;;;;;;;;;;;;;;;;;;;;;;;;;;;;;;;;;;;;;;;;;;;;;;;;;;;;;;;;;;;;;;;;;;;;;;;;;;;;;;;;;;;;;;;;;;;;;;;;;;;;;;;;;;;;;;;;;;;;;;;;19,2;ppm;INAA;40;ppm;INAA;;;;21;ppm;INAA;5,7;ppm;INAA;1,66;ppm;INAA;;;;1;ppm;INAA;;;;;;;;;;;;;3,4;ppm;INAA;0,48;ppm;INAA;0,04;ppm;TITR;0,04;ppm;INAA;0,15;ppm;INAA;;;;;;;;;;;;;;;;;;;;;;1,8;ppm;INAA;;;;;;;289;ppm;Unknown;;;;;;;;;;;;;41;ppm;Unknown;6,5;ppm;Unknown;1,4;ppm;INAA;168;ppm;Unknown;;;;;;;4;ppm;INAA;;;;;;;;;;;;;;;;;;;;;;11;ppm;ICP;13;ppm;Unknown;;;;;;;;;;18;ppm;Unknown;4,8;ppm;Unknown;46;ppm;Unknown;;;;;;;;;;0,02;ppm;INAA;0,32;ppm;INAA;32;ppm;INAA;;;;242;ppm;Unknown;0,94;ppm;INAA;3,7;ppm;INAA;;;;;;;0,85;ppm;INAA;;;;;;;33;ppm;Unknown;118;ppm;Unknown;156;ppm;Unknown;;;;;;;;;;;;;;;;;;;;;;;;;1,8;ppm;INAA;1,8;ppm;INAA;;;;0,31;wt%;TITR;1;wt%;TITR;0,31;wt%;TITR;1;wt%;TITR;;;