SAMPLE ID;IGSN;EXPEDITION ID;REFERENCES;LATITUDE;LONGITUDE;LOC PREC;MIN ELEVATION;MAX ELEVATION;TECTONIC SETTING;MIN AGE;AGE;MAX AGE;METHOD;ANALYZED MATERIAL;ROCK TYPE;ROCK NAME;MINERAL;SIO2;SIO2 Units;SIO2 Method;TIO2;TIO2 Units;TIO2 Method;AL2O3;AL2O3 Units;AL2O3 Method;CR2O3;CR2O3 Units;CR2O3 Method;FE2O3;FE2O3 Units;FE2O3 Method;FE2O3T;FE2O3T Units;FE2O3T Method;FEO;FEO Units;FEO Method;FEOT;FEOT Units;FEOT Method;NIO;NIO Units;NIO Method;MNO;MNO Units;MNO Method;MGO;MGO Units;MGO Method;CAO;CAO Units;CAO Method;SRO;SRO Units;SRO Method;NA2O;NA2O Units;NA2O Method;K2O;K2O Units;K2O Method;P2O5;P2O5 Units;P2O5 Method;BAO;BAO Units;BAO Method;LOI;LOI Units;LOI Method;H2O;H2O Units;H2O Method;H2O_M;H2O_M Units;H2O_M Method;H2O_P;H2O_P Units;H2O_P Method;SO3;SO3 Units;SO3 Method;COO;COO Units;COO Method;MN;MN Units;MN Method;NI;NI Units;NI Method;CO;CO Units;CO Method;CU;CU Units;CU Method;CD;CD Units;CD Method;ZN;ZN Units;ZN Method;AS;AS Units;AS Method;AG;AG Units;AG Method;S;S Units;S Method;ZRO2;ZRO2 Units;ZRO2 Method;AL;AL Units;AL Method;CA;CA Units;CA Method;SR87_SR86;SR87_SR86 Units;SR87_SR86 Method;SR87_SR86_INI;SR87_SR86_INI Units;SR87_SR86_INI Method;RB87_SR86;RB87_SR86 Units;RB87_SR86 Method;ND143_ND144;ND143_ND144 Units;ND143_ND144 Method;ND143_ND144_INI;ND143_ND144_INI Units;ND143_ND144_INI Method;SM147_ND144;SM147_ND144 Units;SM147_ND144 Method;E_ND;E_ND Units;E_ND Method;E_ND_INI;E_ND_INI Units;E_ND_INI Method;PB204_PB206;PB204_PB206 Units;PB204_PB206 Method;PB206_PB204;PB206_PB204 Units;PB206_PB204 Method;PB206_PB204_INI;PB206_PB204_INI Units;PB206_PB204_INI Method;PB207_PB204;PB207_PB204 Units;PB207_PB204 Method;PB207_PB204_INI;PB207_PB204_INI Units;PB207_PB204_INI Method;PB207_PB206;PB207_PB206 Units;PB207_PB206 Method;PB208_PB204;PB208_PB204 Units;PB208_PB204 Method;PB208_PB204_INI;PB208_PB204_INI Units;PB208_PB204_INI Method;PB208_PB206;PB208_PB206 Units;PB208_PB206 Method;HF176_HF177;HF176_HF177 Units;HF176_HF177 Method;RE187_OS188;RE187_OS188 Units;RE187_OS188 Method;OS187_OS188;OS187_OS188 Units;OS187_OS188 Method;OS187_OS188_INI;OS187_OS188_INI Units;OS187_OS188_INI Method;G_OS;G_OS Units;G_OS Method;G_OS_INI;G_OS_INI Units;G_OS_INI Method;ND143_ND144_INI;ND143_ND144_INI Units;ND143_ND144_INI Method;PB206_PB204_INI;PB206_PB204_INI Units;PB206_PB204_INI Method;PB207_PB204_INI;PB207_PB204_INI Units;PB207_PB204_INI Method;PB208_PB204_INI;PB208_PB204_INI Units;PB208_PB204_INI Method;SR87_SR86_INI;SR87_SR86_INI Units;SR87_SR86_INI Method;HE;HE Units;HE Method;HE3;HE3 Units;HE3 Method;HE3_HE4_R_RA;HE3_HE4_R_RA Units;HE3_HE4_R_RA Method;AR36;AR36 Units;AR36 Method;AR40;AR40 Units;AR40 Method;AR40_AR36;AR40_AR36 Units;AR40_AR36 Method;NE20;NE20 Units;NE20 Method;NE20_NE22;NE20_NE22 Units;NE20_NE22 Method;NE21_NE22;NE21_NE22 Units;NE21_NE22 Method;LA;LA Units;LA Method;CE;CE Units;CE Method;PR;PR Units;PR Method;ND;ND Units;ND Method;SM;SM Units;SM Method;EU;EU Units;EU Method;GD;GD Units;GD Method;TB;TB Units;TB Method;DY;DY Units;DY Method;HO;HO Units;HO Method;ER;ER Units;ER Method;TM;TM Units;TM Method;YB;YB Units;YB Method;LU;LU Units;LU Method;CO2;CO2 Units;CO2 Method;F;F Units;F Method;CL;CL Units;CL Method;U238_PB204;U238_PB204 Units;U238_PB204 Method;TH230_TH232;TH230_TH232 Units;TH230_TH232 Method;RA226_ACTIVITY;RA226_ACTIVITY Units;RA226_ACTIVITY Method;PB210_RA226;PB210_RA226 Units;PB210_RA226 Method;PB210_ACTIVITY;PB210_ACTIVITY Units;PB210_ACTIVITY Method;AG;AG Units;AG Method;AL;AL Units;AL Method;AS;AS Units;AS Method;AU;AU Units;AU Method;B;B Units;B Method;BA;BA Units;BA Method;BE;BE Units;BE Method;BI;BI Units;BI Method;CA;CA Units;CA Method;CD;CD Units;CD Method;CO;CO Units;CO Method;CR;CR Units;CR Method;CS;CS Units;CS Method;CU;CU Units;CU Method;GA;GA Units;GA Method;GER;GER Units;GER Method;HF;HF Units;HF Method;INDIUM;INDIUM Units;INDIUM Method;IR;IR Units;IR Method;K;K Units;K Method;LI;LI Units;LI Method;MN;MN Units;MN Method;MO;MO Units;MO Method;NA;NA Units;NA Method;NB;NB Units;NB Method;NI;NI Units;NI Method;OS;OS Units;OS Method;P;P Units;P Method;PB;PB Units;PB Method;PD;PD Units;PD Method;PT;PT Units;PT Method;RB;RB Units;RB Method;RE;RE Units;RE Method;RH;RH Units;RH Method;RU;RU Units;RU Method;S;S Units;S Method;SB;SB Units;SB Method;SC;SC Units;SC Method;SN;SN Units;SN Method;SR;SR Units;SR Method;TA;TA Units;TA Method;TH;TH Units;TH Method;TI;TI Units;TI Method;TL;TL Units;TL Method;U;U Units;U Method;V;V Units;V Method;W;W Units;W Method;Y;Y Units;Y Method;ZN;ZN Units;ZN Method;ZR;ZR Units;ZR Method;DELTA_O18;DELTA_O18 Units;DELTA_O18 Method;DELTA_C13;DELTA_C13 Units;DELTA_C13 Method;DELTA_MO98;DELTA_MO98 Units;DELTA_MO98 Method;DELTA_ZN66;DELTA_ZN66 Units;DELTA_ZN66 Method;DELTA_ZN68;DELTA_ZN68 Units;DELTA_ZN68 Method;OS188;OS188 Units;OS188 Method;FE3P_FET;FE3P_FET Units;FE3P_FET Method;TI;TI Units;TI Method;AS;AS Units;AS Method;AS;AS Units;AS Method;GER;GER Units;GER Method;H2O_M;H2O_M Units;H2O_M Method;H2O_P;H2O_P Units;H2O_P Method;H2O_M;H2O_M Units;H2O_M Method;H2O_P;H2O_P Units;H2O_P Method;INDIUM;INDIUM Units;INDIUM Method
DOSTNS-NMB-SW-4;;DOSTAL_NOVA_SCOTIA;DOSTAL, 1984;45,25;-64,75;1;;;CONTINENTAL_RIFT;;;;"AAS; Unknown; XRF";WHOLE ROCK;IGNEOUS:VOLCANIC:MAFIC;BASALT;;51,87;wt%;Unknown;1,08;wt%;Unknown;13,02;wt%;Unknown;;;;;;;11,01;wt%;Unknown;;;;;;;;;;0,19;wt%;Unknown;8,2;wt%;Unknown;10,72;wt%;Unknown;;;;1,85;wt%;Unknown;0,91;wt%;AAS;0,19;wt%;Unknown;;;;;;;;;;0,45;wt%;Unknown;0,74;wt%;Unknown;;;;;;;;;;95;ppm;AAS;48;ppm;AAS;141;ppm;AAS;;;;83;ppm;AAS;;;;;;;;;;;;;;;;;;;;;;;;;;;;;;;;;;;;;;;;;;;;;;;;;;;;;;;;;;;;;;;;;;;;;;;;;;;;;;;;;;;;;;;;;;;;;;;;;;;;;;;;;;;;;;;;;;;;;;;;;;;;;;;;;;;;;;;;;;;;;;;;;;;;;;;;;;;;;;;;;;;;;;;;;;;;;;;;;;;;;;;;;;;;;;;;;;;;;;;;;;;;;;;;;;;151;ppm;XRF;;;;;;;;;;;;;48;ppm;AAS;366;ppm;AAS;;;;141;ppm;AAS;;;;;;;;;;;;;;;;;;;10;ppm;AAS;;;;;;;;;;10;ppm;XRF;95;ppm;AAS;;;;;;;;;;;;;;;;19;ppm;AAS;;;;;;;;;;;;;;;;;;;;;;174;ppm;AAS;;;;;;;;;;;;;;;;270;ppm;AAS;;;;;;;83;ppm;AAS;97;ppm;XRF;;;;;;;;;;;;;;;;;;;;;;;;;;;;;;;;;;0,45;wt%;Unknown;0,74;wt%;Unknown;0,45;wt%;Unknown;0,74;wt%;Unknown;;;
GOTT-CAMP-CC2-853.7;;GOTTFRIED-CC;GOTTFRIED , 1983;33;-80,15;1;;;CONTINENTAL_RIFT;;;;INAA;WHOLE ROCK;IGNEOUS:VOLCANIC:MAFIC;BASALT;;;;;;;;;;;;;;;;;;;;;;;;;;;;;;;;;;;;;;;;;;;;;;;;;;;;;;;;;;;;;;;;;;;;;;;;;;24;ppm;INAA;46;ppm;INAA;21;ppm;INAA;;;;93;ppm;INAA;;;;;;;;;;;;;;;;;;;;;;;;;;;;;;;;;;;;;;;;;;;;;;;;;;;;;;;;;;;;;;;;;;;;;;;;;;;;;;;;;;;;;;;;;;;;;;;;;;;;;;;;;;;;;;;;;;;;;;;;;;;;;;;;;;;;;;;;;;;;;;;;;;;;;;;;;;;;;;;;;;;;;;;;;;;;;;;;;;;;;;;;;;;;;;;;;;;;;;;;;;;;;;;;;;;160;ppm;INAA;;;;;;;;;;;;;46;ppm;INAA;74;ppm;INAA;;;;21;ppm;INAA;18;ppm;INAA;;;;;;;;;;;;;;;;15;ppm;INAA;;;;;;;;;;6,4;ppm;INAA;24;ppm;INAA;;;;;;;7,8;ppm;INAA;;;;;;;8,6;ppm;INAA;;;;;;;;;;;;;;;;50;ppm;INAA;;;;240;ppm;INAA;;;;;;;;;;;;;;;;290;ppm;INAA;;;;;;;93;ppm;INAA;91;ppm;INAA;;;;;;;;;;;;;;;;;;;;;;;;;;;;;;;;;;;;;;;;;;;;;;;;
GOTT-CAMP-CC2-858.5;;GOTTFRIED-CC;GOTTFRIED , 1983;33;-80,15;1;;;CONTINENTAL_RIFT;;;;INAA;WHOLE ROCK;IGNEOUS:VOLCANIC:MAFIC;BASALT;;;;;;;;;;;;;;;;;;;;;;;;;;;;;;;;;;;;;;;;;;;;;;;;;;;;;;;;;;;;;;;;;;;;;;;;;;24;ppm;INAA;47;ppm;INAA;20;ppm;INAA;;;;90;ppm;INAA;;;;;;;;;;;;;;;;;;;;;;;;;;;;;;;;;;;;;;;;;;;;;;;;;;;;;;;;;;;;;;;;;;;;;;;;;;;;;;;;;;;;;;;;;;;;;;;;;;;;;;;;;;;;;;;;;;;;;;;;;;;;;;;;;;;;;;;;;;;;;;;;;;;;;;;;;;;;;;;;;;;;;;;;;;;;;;;;;;;;;;;;;;;;;;;;;;;;;;;;;;;;;;;;;;;150;ppm;INAA;;;;;;;;;;;;;47;ppm;INAA;59;ppm;INAA;;;;20;ppm;INAA;18;ppm;INAA;;;;;;;;;;;;;;;;17;ppm;INAA;;;;;;;;;;;;;24;ppm;INAA;;;;;;;5,4;ppm;INAA;;;;;;;17;ppm;INAA;;;;;;;;;;;;;;;;49;ppm;INAA;;;;220;ppm;INAA;;;;;;;;;;;;;;;;290;ppm;INAA;;;;;;;90;ppm;INAA;85;ppm;INAA;;;;;;;;;;;;;;;;;;;;;;;;;;;;;;;;;;;;;;;;;;;;;;;;
GOTT-CAMP-CC2-776.5;;GOTTFRIED-CC;GOTTFRIED , 1983;33;-80,15;1;;;CONTINENTAL_RIFT;;;;INAA;WHOLE ROCK;IGNEOUS:VOLCANIC:MAFIC;BASALT;;;;;;;;;;;;;;;;;;;;;;;;;;;;;;;;;;;;;;;;;;;;;;;;;;;;;;;;;;;;;;;;;;;;;;;;;;19;ppm;INAA;36;ppm;INAA;16;ppm;INAA;;;;88;ppm;INAA;;;;;;;;;;;;;;;;;;;;;;;;;;;;;;;;;;;;;;;;;;;;;;;;;;;;;;;;;;;;;;;;;;;;;;;;;;;;;;;;;;;;;;;;;;;;;;;;;;;;;;;;;;;;;;;;;;;;;;;;;;;;;;;;;;;;;;;;;;;;;;;;;;;;;;;;;;;;;;;;;;;;;;;;;;;;;;;;;;;;;;;;;;;;;;;;;;;;;;;;;;;;;;;;;;;270;ppm;INAA;;;;;;;;;;;;;36;ppm;INAA;50;ppm;INAA;;;;16;ppm;INAA;12;ppm;INAA;;;;;;;;;;;;;;;;3,9;ppm;INAA;;;;;;;;;;4,9;ppm;INAA;19;ppm;INAA;;;;;;;7,4;ppm;INAA;;;;;;;10;ppm;INAA;;;;;;;;;;;;;;;;39;ppm;INAA;;;;380;ppm;INAA;;;;;;;;;;;;;;;;230;ppm;INAA;;;;;;;88;ppm;INAA;78;ppm;INAA;;;;;;;;;;;;;;;;;;;;;;;;;;;;;;;;;;;;;;;;;;;;;;;;
GOTT-CAMP-CC2-779;;GOTTFRIED-CC;GOTTFRIED , 1983;33;-80,15;1;;;CONTINENTAL_RIFT;;;;"ENAA; ES; INAA; Unknown";WHOLE ROCK;IGNEOUS:VOLCANIC:MAFIC;BASALT;;47,8;wt%;Unknown;0,92;wt%;Unknown;14;wt%;Unknown;;;;3,9;wt%;Unknown;;;;7;wt%;Unknown;;;;;;;0,21;wt%;Unknown;6,4;wt%;Unknown;6,5;wt%;Unknown;;;;4,5;wt%;Unknown;0,44;wt%;Unknown;0,15;wt%;Unknown;;;;;;;;;;2,2;wt%;Unknown;5,8;wt%;Unknown;;;;;;;;;;22;ppm;INAA;44;ppm;INAA;18;ppm;INAA;;;;62;ppm;INAA;;;;;;;;;;;;;;;;51000;ppm;INAA;;;;;;;;;;;;;;;;;;;;;;;;;;;;;;;;;;;;;;;;;;;;;;;;;;;;;;;;;;;;;;;;;;;;;;;;;;;;;;;;;;;;;;;;;;;;;;;;;;;;;;;;;;;;;;;;10;ppm;ENAA;23;ppm;ENAA;;;;10;ppm;ENAA;3;ppm;ENAA;0,94;ppm;ENAA;;;;0,78;ppm;ENAA;;;;0,7;ppm;ENAA;;;;;;;2,5;ppm;ENAA;0,35;ppm;ENAA;0,09;wt%;Unknown;;;;;;;;;;;;;;;;;;;;;;;;;;;;;;;;;;;;;240;ppm;INAA;;;;;;;51000;ppm;INAA;;;;44;ppm;INAA;52;ppm;INAA;;;;18;ppm;INAA;16;ppm;INAA;;;;2;ppm;ENAA;;;;;;;4000;ppm;INAA;6;ppm;INAA;;;;;;;;;;5,9;ppm;INAA;22;ppm;INAA;;;;;;;6,1;ppm;INAA;;;;;;;8,5;ppm;INAA;;;;;;;;;;;;;;;;44;ppm;INAA;;;;360;ppm;INAA;0,27;ppm;ENAA;2,1;ppm;ENAA;;;;;;;0,6;ppm;ENAA;280;ppm;INAA;;;;23;ppm;ES;62;ppm;INAA;77;ppm;INAA;;;;;;;;;;;;;;;;;;;;;;;;;;;;;;;;;;2,2;wt%;Unknown;5,8;wt%;Unknown;2,2;wt%;Unknown;5,8;wt%;Unknown;;;
GOTT-CAMP-CC2-780;;GOTTFRIED-CC;GOTTFRIED , 1983;33;-80,15;1;;;CONTINENTAL_RIFT;;;;"ENAA; ES; INAA; Unknown";WHOLE ROCK;IGNEOUS:VOLCANIC:MAFIC;BASALT;;53,1;wt%;Unknown;1;wt%;Unknown;14,3;wt%;Unknown;;;;2,3;wt%;Unknown;;;;8,6;wt%;Unknown;;;;;;;0,15;wt%;Unknown;6;wt%;Unknown;9,5;wt%;Unknown;;;;2,5;wt%;Unknown;0,25;wt%;Unknown;0,15;wt%;Unknown;;;;;;;;;;1,1;wt%;Unknown;2,3;wt%;Unknown;;;;;;;;;;21;ppm;INAA;50;ppm;INAA;19;ppm;INAA;;;;93;ppm;INAA;;;;;;;;;;;;;;;;69000;ppm;INAA;;;;;;;;;;;;;;;;;;;;;;;;;;;;;;;;;;;;;;;;;;;;;;;;;;;;;;;;;;;;;;;;;;;;;;;;;;;;;;;;;;;;;;;;;;;;;;;;;;;;;;;;;;;;;;;;10;ppm;ENAA;20;ppm;ENAA;;;;14;ppm;ENAA;3,2;ppm;ENAA;0,93;ppm;ENAA;3;ppm;ENAA;0,77;ppm;ENAA;;;;0,5;ppm;ENAA;;;;0,33;ppm;ENAA;2,7;ppm;ENAA;0,42;ppm;ENAA;0,02;wt%;Unknown;;;;;;;;;;;;;;;;;;;;;;;;;;;;;;;;;;;;;80;ppm;INAA;;;;;;;69000;ppm;INAA;;;;50;ppm;INAA;68;ppm;INAA;;;;19;ppm;INAA;15;ppm;INAA;;;;2,1;ppm;ENAA;;;;;;;2200;ppm;INAA;7,4;ppm;INAA;;;;;;;;;;6,1;ppm;INAA;21;ppm;INAA;;;;;;;5,1;ppm;INAA;;;;;;;3,4;ppm;INAA;;;;;;;;;;;;;;;;39;ppm;INAA;;;;180;ppm;INAA;0,34;ppm;ENAA;2;ppm;ENAA;;;;;;;0,6;ppm;ENAA;270;ppm;INAA;;;;29;ppm;ES;93;ppm;INAA;90;ppm;INAA;;;;;;;;;;;;;;;;;;;;;;;;;;;;;;;;;;1,1;wt%;Unknown;2,3;wt%;Unknown;1,1;wt%;Unknown;2,3;wt%;Unknown;;;
GOTT-CAMP-CC2-783.3;;GOTTFRIED-CC;GOTTFRIED , 1983;33;-80,15;1;;;CONTINENTAL_RIFT;;;;INAA;WHOLE ROCK;IGNEOUS:VOLCANIC:MAFIC;BASALT;;;;;;;;;;;;;;;;;;;;;;;;;;;;;;;;;;;;;;;;;;;;;;;;;;;;;;;;;;;;;;;;;;;;;;;;;;22;ppm;INAA;44;ppm;INAA;18;ppm;INAA;;;;89;ppm;INAA;;;;;;;;;;;;;;;;;;;;;;;;;;;;;;;;;;;;;;;;;;;;;;;;;;;;;;;;;;;;;;;;;;;;;;;;;;;;;;;;;;;;;;;;;;;;;;;;;;;;;;;;;;;;;;;;;;;;;;;;;;;;;;;;;;;;;;;;;;;;;;;;;;;;;;;;;;;;;;;;;;;;;;;;;;;;;;;;;;;;;;;;;;;;;;;;;;;;;;;;;;;;;;;;;;;14;ppm;INAA;;;;;;;;;;;;;44;ppm;INAA;56;ppm;INAA;;;;18;ppm;INAA;20;ppm;INAA;;;;;;;;;;;;;;;;2,2;ppm;INAA;;;;;;;;;;;;;22;ppm;INAA;;;;;;;7,7;ppm;INAA;;;;;;;1,6;ppm;INAA;;;;;;;;;;;;;;;;42;ppm;INAA;;;;64;ppm;INAA;;;;;;;;;;;;;;;;280;ppm;INAA;;;;;;;89;ppm;INAA;83;ppm;INAA;;;;;;;;;;;;;;;;;;;;;;;;;;;;;;;;;;;;;;;;;;;;;;;;
GOTT-CAMP-CC2-786;;GOTTFRIED-CC;GOTTFRIED , 1983;33;-80,15;1;;;CONTINENTAL_RIFT;;;;"ENAA; ES; INAA; Unknown";WHOLE ROCK;IGNEOUS:VOLCANIC:MAFIC;BASALT;;49,4;wt%;Unknown;0,97;wt%;Unknown;14;wt%;Unknown;;;;3,1;wt%;Unknown;;;;7,8;wt%;Unknown;;;;;;;0,17;wt%;Unknown;6,3;wt%;Unknown;7,4;wt%;Unknown;;;;4,7;wt%;Unknown;0,87;wt%;Unknown;0,14;wt%;Unknown;;;;;;;;;;1;wt%;Unknown;4,6;wt%;Unknown;;;;;;;;;;23;ppm;INAA;49;ppm;INAA;20;ppm;INAA;;;;76;ppm;INAA;;;;;;;;;;;;;;;;56000;ppm;INAA;;;;;;;;;;;;;;;;;;;;;;;;;;;;;;;;;;;;;;;;;;;;;;;;;;;;;;;;;;;;;;;;;;;;;;;;;;;;;;;;;;;;;;;;;;;;;;;;;;;;;;;;;;;;;;;;9;ppm;ENAA;20;ppm;ENAA;;;;12;ppm;ENAA;3,1;ppm;ENAA;0,94;ppm;ENAA;2,8;ppm;ENAA;0,71;ppm;ENAA;;;;0,7;ppm;ENAA;;;;0,32;ppm;ENAA;2,6;ppm;ENAA;0,44;ppm;ENAA;0,02;wt%;Unknown;;;;;;;;;;;;;;;;;;;;;;;;;;;;;;;;;;;;;110;ppm;INAA;;;;;;;56000;ppm;INAA;;;;49;ppm;INAA;68;ppm;INAA;;;;20;ppm;INAA;17;ppm;INAA;;;;2,1;ppm;ENAA;;;;;;;7600;ppm;INAA;5,2;ppm;INAA;;;;;;;;;;5,9;ppm;INAA;23;ppm;INAA;;;;;;;5,5;ppm;INAA;;;;;;;34;ppm;INAA;;;;;;;;;;;;;;;;37;ppm;INAA;;;;170;ppm;INAA;0,45;ppm;ENAA;1,9;ppm;ENAA;;;;;;;0,5;ppm;ENAA;300;ppm;INAA;;;;25;ppm;ES;76;ppm;INAA;78;ppm;INAA;;;;;;;;;;;;;;;;;;;;;;;;;;;;;;;;;;1;wt%;Unknown;4,6;wt%;Unknown;1;wt%;Unknown;4,6;wt%;Unknown;;;
GOTT-CAMP-CC2-790;;GOTTFRIED-CC;GOTTFRIED , 1983;33;-80,15;1;;;CONTINENTAL_RIFT;;;;INAA;WHOLE ROCK;IGNEOUS:VOLCANIC:MAFIC;BASALT;;;;;;;;;;;;;;;;;;;;;;;;;;;;;;;;;;;;;;;;;;;;;;;;;;;;;;;;;;;;;;;;;;;;;;;;;;25;ppm;INAA;50;ppm;INAA;22;ppm;INAA;;;;93;ppm;INAA;;;;;;;;;;;;;;;;;;;;;;;;;;;;;;;;;;;;;;;;;;;;;;;;;;;;;;;;;;;;;;;;;;;;;;;;;;;;;;;;;;;;;;;;;;;;;;;;;;;;;;;;;;;;;;;;;;;;;;;;;;;;;;;;;;;;;;;;;;;;;;;;;;;;;;;;;;;;;;;;;;;;;;;;;;;;;;;;;;;;;;;;;;;;;;;;;;;;;;;;;;;;;;;;;;;45;ppm;INAA;;;;;;;;;;;;;50;ppm;INAA;66;ppm;INAA;;;;22;ppm;INAA;15;ppm;INAA;;;;;;;;;;;;;;;;8,2;ppm;INAA;;;;;;;;;;5,3;ppm;INAA;25;ppm;INAA;;;;;;;9,1;ppm;INAA;;;;;;;6;ppm;INAA;;;;;;;;;;;;;;;;50;ppm;INAA;;;;61;ppm;INAA;;;;;;;;;;;;;;;;370;ppm;INAA;;;;;;;93;ppm;INAA;100;ppm;INAA;;;;;;;;;;;;;;;;;;;;;;;;;;;;;;;;;;;;;;;;;;;;;;;;
GOTT-CAMP-CC2-798;;GOTTFRIED-CC;GOTTFRIED , 1983;33;-80,15;1;;;CONTINENTAL_RIFT;;;;INAA;WHOLE ROCK;IGNEOUS:VOLCANIC:MAFIC;BASALT;;;;;;;;;;;;;;;;;;;;;;;;;;;;;;;;;;;;;;;;;;;;;;;;;;;;;;;;;;;;;;;;;;;;;;;;;;20;ppm;INAA;39;ppm;INAA;17;ppm;INAA;;;;90;ppm;INAA;;;;;;;;;;;;;;;;;;;;;;;;;;;;;;;;;;;;;;;;;;;;;;;;;;;;;;;;;;;;;;;;;;;;;;;;;;;;;;;;;;;;;;;;;;;;;;;;;;;;;;;;;;;;;;;;;;;;;;;;;;;;;;;;;;;;;;;;;;;;;;;;;;;;;;;;;;;;;;;;;;;;;;;;;;;;;;;;;;;;;;;;;;;;;;;;;;;;;;;;;;;;;;;;;;;72;ppm;INAA;;;;;;;;;;;;;39;ppm;INAA;50;ppm;INAA;;;;17;ppm;INAA;15;ppm;INAA;;;;;;;;;;;;;;;;19;ppm;INAA;;;;;;;;;;;;;20;ppm;INAA;;;;;;;4,8;ppm;INAA;;;;;;;10;ppm;INAA;;;;;;;;;;;;;;;;40;ppm;INAA;;;;210;ppm;INAA;;;;;;;;;;;;;;;;270;ppm;INAA;;;;;;;90;ppm;INAA;77;ppm;INAA;;;;;;;;;;;;;;;;;;;;;;;;;;;;;;;;;;;;;;;;;;;;;;;;
GOTT-CAMP-CC2-803.4;;GOTTFRIED-CC;GOTTFRIED , 1983;33;-80,15;1;;;CONTINENTAL_RIFT;;;;INAA;WHOLE ROCK;IGNEOUS:VOLCANIC:MAFIC;BASALT;;;;;;;;;;;;;;;;;;;;;;;;;;;;;;;;;;;;;;;;;;;;;;;;;;;;;;;;;;;;;;;;;;;;;;;;;;23;ppm;INAA;44;ppm;INAA;17;ppm;INAA;;;;85;ppm;INAA;;;;;;;;;;;;;;;;;;;;;;;;;;;;;;;;;;;;;;;;;;;;;;;;;;;;;;;;;;;;;;;;;;;;;;;;;;;;;;;;;;;;;;;;;;;;;;;;;;;;;;;;;;;;;;;;;;;;;;;;;;;;;;;;;;;;;;;;;;;;;;;;;;;;;;;;;;;;;;;;;;;;;;;;;;;;;;;;;;;;;;;;;;;;;;;;;;;;;;;;;;;;;;;;;;;57;ppm;INAA;;;;;;;;;;;;;44;ppm;INAA;54;ppm;INAA;;;;17;ppm;INAA;17;ppm;INAA;;;;;;;;;;;;;;;;12;ppm;INAA;;;;;;;;;;5,6;ppm;INAA;23;ppm;INAA;;;;;;;5,4;ppm;INAA;;;;;;;8,4;ppm;INAA;;;;;;;;;;;;;;;;46;ppm;INAA;;;;160;ppm;INAA;;;;;;;;;;;;;;;;270;ppm;INAA;;;;;;;85;ppm;INAA;87;ppm;INAA;;;;;;;;;;;;;;;;;;;;;;;;;;;;;;;;;;;;;;;;;;;;;;;;
GOTT-CAMP-CC2-808.9;;GOTTFRIED-CC;GOTTFRIED , 1983;33;-80,15;1;;;CONTINENTAL_RIFT;;;;INAA;WHOLE ROCK;IGNEOUS:VOLCANIC:MAFIC;BASALT;;;;;;;;;;;;;;;;;;;;;;;;;;;;;;;;;;;;;;;;;;;;;;;;;;;;;;;;;;;;;;;;;;;;;;;;;;20;ppm;INAA;34;ppm;INAA;18;ppm;INAA;;;;93;ppm;INAA;;;;;;;;;;;;;;;;;;;;;;;;;;;;;;;;;;;;;;;;;;;;;;;;;;;;;;;;;;;;;;;;;;;;;;;;;;;;;;;;;;;;;;;;;;;;;;;;;;;;;;;;;;;;;;;;;;;;;;;;;;;;;;;;;;;;;;;;;;;;;;;;;;;;;;;;;;;;;;;;;;;;;;;;;;;;;;;;;;;;;;;;;;;;;;;;;;;;;;;;;;;;;;;;;;;89;ppm;INAA;;;;;;;;;;;;;34;ppm;INAA;50;ppm;INAA;;;;18;ppm;INAA;16;ppm;INAA;;;;;;;;;;;;;;;;20;ppm;INAA;;;;;;;;;;5,2;ppm;INAA;20;ppm;INAA;;;;;;;5,6;ppm;INAA;;;;;;;37;ppm;INAA;;;;;;;;;;;;;;;;40;ppm;INAA;;;;170;ppm;INAA;;;;;;;;;;;;;;;;280;ppm;INAA;;;;;;;93;ppm;INAA;77;ppm;INAA;;;;;;;;;;;;;;;;;;;;;;;;;;;;;;;;;;;;;;;;;;;;;;;;
GOTT-CAMP-CC2-814;;GOTTFRIED-CC;GOTTFRIED , 1983;33;-80,15;1;;;CONTINENTAL_RIFT;;;;INAA;WHOLE ROCK;IGNEOUS:VOLCANIC:MAFIC;BASALT;;;;;;;;;;;;;;;;;;;;;;;;;;;;;;;;;;;;;;;;;;;;;;;;;;;;;;;;;;;;;;;;;;;;;;;;;;22;ppm;INAA;37;ppm;INAA;24;ppm;INAA;;;;87;ppm;INAA;;;;;;;;;;;;;;;;;;;;;;;;;;;;;;;;;;;;;;;;;;;;;;;;;;;;;;;;;;;;;;;;;;;;;;;;;;;;;;;;;;;;;;;;;;;;;;;;;;;;;;;;;;;;;;;;;;;;;;;;;;;;;;;;;;;;;;;;;;;;;;;;;;;;;;;;;;;;;;;;;;;;;;;;;;;;;;;;;;;;;;;;;;;;;;;;;;;;;;;;;;;;;;;;;;;370;ppm;INAA;;;;;;;;;;;;;37;ppm;INAA;51;ppm;INAA;;;;24;ppm;INAA;15;ppm;INAA;;;;;;;;;;;;;;;;20;ppm;INAA;;;;;;;;;;6,2;ppm;INAA;22;ppm;INAA;;;;;;;7,6;ppm;INAA;;;;;;;59;ppm;INAA;;;;;;;;;;;;;;;;40;ppm;INAA;;;;160;ppm;INAA;;;;;;;;;;;;;;;;260;ppm;INAA;;;;;;;87;ppm;INAA;78;ppm;INAA;;;;;;;;;;;;;;;;;;;;;;;;;;;;;;;;;;;;;;;;;;;;;;;;
GOTT-CAMP-CC2-819;;GOTTFRIED-CC;GOTTFRIED , 1983;33;-80,15;1;;;CONTINENTAL_RIFT;;;;"ENAA; ES; INAA; Unknown";WHOLE ROCK;IGNEOUS:VOLCANIC:MAFIC;BASALT;;53,2;wt%;Unknown;1;wt%;Unknown;14,3;wt%;Unknown;;;;3,1;wt%;Unknown;;;;7,8;wt%;Unknown;;;;;;;0,16;wt%;Unknown;6,2;wt%;Unknown;9,6;wt%;Unknown;;;;2,3;wt%;Unknown;0,57;wt%;Unknown;0,16;wt%;Unknown;;;;;;;;;;1,2;wt%;Unknown;1,2;wt%;Unknown;;;;;;;;;;21;ppm;INAA;48;ppm;INAA;20;ppm;INAA;;;;94;ppm;INAA;;;;;;;;;;;;;;;;70000;ppm;INAA;;;;;;;;;;;;;;;;;;;;;;;;;;;;;;;;;;;;;;;;;;;;;;;;;;;;;;;;;;;;;;;;;;;;;;;;;;;;;;;;;;;;;;;;;;;;;;;;;;;;;;;;;;;;;;;;9;ppm;ENAA;21;ppm;ENAA;;;;14;ppm;ENAA;3,2;ppm;ENAA;0,99;ppm;ENAA;3,4;ppm;ENAA;0,84;ppm;ENAA;;;;0,6;ppm;ENAA;;;;0,36;ppm;ENAA;3,1;ppm;ENAA;0,44;ppm;ENAA;0,02;wt%;Unknown;;;;;;;;;;;;;;;;;;;;;;;;;;;;;;;;;;;;;140;ppm;INAA;;;;;;;70000;ppm;INAA;;;;48;ppm;INAA;63;ppm;INAA;;;;20;ppm;INAA;15;ppm;INAA;;;;2,1;ppm;ENAA;;;;;;;4800;ppm;INAA;10;ppm;INAA;;;;;;;;;;6,5;ppm;INAA;21;ppm;INAA;;;;;;;4,9;ppm;INAA;;;;;;;10;ppm;INAA;;;;;;;;;;;;;;;;41;ppm;INAA;;;;160;ppm;INAA;0,53;ppm;ENAA;2,1;ppm;ENAA;;;;;;;0,7;ppm;ENAA;250;ppm;INAA;;;;28;ppm;ES;94;ppm;INAA;90;ppm;INAA;;;;;;;;;;;;;;;;;;;;;;;;;;;;;;;;;;1,2;wt%;Unknown;1,2;wt%;Unknown;1,2;wt%;Unknown;1,2;wt%;Unknown;;;
GOTT-CAMP-CC2-829;;GOTTFRIED-CC;GOTTFRIED , 1983;33;-80,15;1;;;CONTINENTAL_RIFT;;;;INAA;WHOLE ROCK;IGNEOUS:VOLCANIC:MAFIC;BASALT;;;;;;;;;;;;;;;;;;;;;;;;;;;;;;;;;;;;;;;;;;;;;;;;;;;;;;;;;;;;;;;;;;;;;;;;;;25;ppm;INAA;45;ppm;INAA;20;ppm;INAA;;;;89;ppm;INAA;;;;;;;;;;;;;;;;;;;;;;;;;;;;;;;;;;;;;;;;;;;;;;;;;;;;;;;;;;;;;;;;;;;;;;;;;;;;;;;;;;;;;;;;;;;;;;;;;;;;;;;;;;;;;;;;;;;;;;;;;;;;;;;;;;;;;;;;;;;;;;;;;;;;;;;;;;;;;;;;;;;;;;;;;;;;;;;;;;;;;;;;;;;;;;;;;;;;;;;;;;;;;;;;;;;140;ppm;INAA;;;;;;;;;;;;;45;ppm;INAA;66;ppm;INAA;;;;20;ppm;INAA;17;ppm;INAA;;;;;;;;;;;;;;;;4,8;ppm;INAA;;;;;;;;;;4,9;ppm;INAA;25;ppm;INAA;;;;;;;5,3;ppm;INAA;;;;;;;17;ppm;INAA;;;;;;;;;;;;;;;;46;ppm;INAA;;;;180;ppm;INAA;;;;;;;;;;;;;;;;290;ppm;INAA;;;;;;;89;ppm;INAA;90;ppm;INAA;;;;;;;;;;;;;;;;;;;;;;;;;;;;;;;;;;;;;;;;;;;;;;;;