SAMPLE ID;IGSN;EXPEDITION ID;REFERENCES;LATITUDE;LONGITUDE;LOC PREC;MIN ELEVATION;MAX ELEVATION;TECTONIC SETTING;MIN AGE;AGE;MAX AGE;METHOD;ANALYZED MATERIAL;ROCK TYPE;ROCK NAME;MINERAL;SIO2;SIO2 Units;SIO2 Method;TIO2;TIO2 Units;TIO2 Method;AL2O3;AL2O3 Units;AL2O3 Method;CR2O3;CR2O3 Units;CR2O3 Method;FE2O3;FE2O3 Units;FE2O3 Method;FE2O3T;FE2O3T Units;FE2O3T Method;FEO;FEO Units;FEO Method;FEOT;FEOT Units;FEOT Method;NIO;NIO Units;NIO Method;MNO;MNO Units;MNO Method;MGO;MGO Units;MGO Method;CAO;CAO Units;CAO Method;SRO;SRO Units;SRO Method;NA2O;NA2O Units;NA2O Method;K2O;K2O Units;K2O Method;P2O5;P2O5 Units;P2O5 Method;BAO;BAO Units;BAO Method;LOI;LOI Units;LOI Method;H2O;H2O Units;H2O Method;H2O_M;H2O_M Units;H2O_M Method;H2O_P;H2O_P Units;H2O_P Method;SO3;SO3 Units;SO3 Method;COO;COO Units;COO Method;MN;MN Units;MN Method;NI;NI Units;NI Method;CO;CO Units;CO Method;CU;CU Units;CU Method;CD;CD Units;CD Method;ZN;ZN Units;ZN Method;AS;AS Units;AS Method;AG;AG Units;AG Method;S;S Units;S Method;ZRO2;ZRO2 Units;ZRO2 Method;AL;AL Units;AL Method;CA;CA Units;CA Method;SR87_SR86;SR87_SR86 Units;SR87_SR86 Method;SR87_SR86_INI;SR87_SR86_INI Units;SR87_SR86_INI Method;RB87_SR86;RB87_SR86 Units;RB87_SR86 Method;ND143_ND144;ND143_ND144 Units;ND143_ND144 Method;ND143_ND144_INI;ND143_ND144_INI Units;ND143_ND144_INI Method;SM147_ND144;SM147_ND144 Units;SM147_ND144 Method;E_ND;E_ND Units;E_ND Method;E_ND_INI;E_ND_INI Units;E_ND_INI Method;PB204_PB206;PB204_PB206 Units;PB204_PB206 Method;PB206_PB204;PB206_PB204 Units;PB206_PB204 Method;PB206_PB204_INI;PB206_PB204_INI Units;PB206_PB204_INI Method;PB207_PB204;PB207_PB204 Units;PB207_PB204 Method;PB207_PB204_INI;PB207_PB204_INI Units;PB207_PB204_INI Method;PB207_PB206;PB207_PB206 Units;PB207_PB206 Method;PB208_PB204;PB208_PB204 Units;PB208_PB204 Method;PB208_PB204_INI;PB208_PB204_INI Units;PB208_PB204_INI Method;PB208_PB206;PB208_PB206 Units;PB208_PB206 Method;HF176_HF177;HF176_HF177 Units;HF176_HF177 Method;RE187_OS188;RE187_OS188 Units;RE187_OS188 Method;OS187_OS188;OS187_OS188 Units;OS187_OS188 Method;OS187_OS188_INI;OS187_OS188_INI Units;OS187_OS188_INI Method;G_OS;G_OS Units;G_OS Method;G_OS_INI;G_OS_INI Units;G_OS_INI Method;ND143_ND144_INI;ND143_ND144_INI Units;ND143_ND144_INI Method;PB206_PB204_INI;PB206_PB204_INI Units;PB206_PB204_INI Method;PB207_PB204_INI;PB207_PB204_INI Units;PB207_PB204_INI Method;PB208_PB204_INI;PB208_PB204_INI Units;PB208_PB204_INI Method;SR87_SR86_INI;SR87_SR86_INI Units;SR87_SR86_INI Method;HE;HE Units;HE Method;HE3;HE3 Units;HE3 Method;HE3_HE4_R_RA;HE3_HE4_R_RA Units;HE3_HE4_R_RA Method;AR36;AR36 Units;AR36 Method;AR40;AR40 Units;AR40 Method;AR40_AR36;AR40_AR36 Units;AR40_AR36 Method;NE20;NE20 Units;NE20 Method;NE20_NE22;NE20_NE22 Units;NE20_NE22 Method;NE21_NE22;NE21_NE22 Units;NE21_NE22 Method;LA;LA Units;LA Method;CE;CE Units;CE Method;PR;PR Units;PR Method;ND;ND Units;ND Method;SM;SM Units;SM Method;EU;EU Units;EU Method;GD;GD Units;GD Method;TB;TB Units;TB Method;DY;DY Units;DY Method;HO;HO Units;HO Method;ER;ER Units;ER Method;TM;TM Units;TM Method;YB;YB Units;YB Method;LU;LU Units;LU Method;CO2;CO2 Units;CO2 Method;F;F Units;F Method;CL;CL Units;CL Method;U238_PB204;U238_PB204 Units;U238_PB204 Method;TH230_TH232;TH230_TH232 Units;TH230_TH232 Method;RA226_ACTIVITY;RA226_ACTIVITY Units;RA226_ACTIVITY Method;PB210_RA226;PB210_RA226 Units;PB210_RA226 Method;PB210_ACTIVITY;PB210_ACTIVITY Units;PB210_ACTIVITY Method;AG;AG Units;AG Method;AL;AL Units;AL Method;AS;AS Units;AS Method;AU;AU Units;AU Method;B;B Units;B Method;BA;BA Units;BA Method;BE;BE Units;BE Method;BI;BI Units;BI Method;CA;CA Units;CA Method;CD;CD Units;CD Method;CO;CO Units;CO Method;CR;CR Units;CR Method;CS;CS Units;CS Method;CU;CU Units;CU Method;GA;GA Units;GA Method;GER;GER Units;GER Method;HF;HF Units;HF Method;INDIUM;INDIUM Units;INDIUM Method;IR;IR Units;IR Method;K;K Units;K Method;LI;LI Units;LI Method;MN;MN Units;MN Method;MO;MO Units;MO Method;NA;NA Units;NA Method;NB;NB Units;NB Method;NI;NI Units;NI Method;OS;OS Units;OS Method;P;P Units;P Method;PB;PB Units;PB Method;PD;PD Units;PD Method;PT;PT Units;PT Method;RB;RB Units;RB Method;RE;RE Units;RE Method;RH;RH Units;RH Method;RU;RU Units;RU Method;S;S Units;S Method;SB;SB Units;SB Method;SC;SC Units;SC Method;SN;SN Units;SN Method;SR;SR Units;SR Method;TA;TA Units;TA Method;TH;TH Units;TH Method;TI;TI Units;TI Method;TL;TL Units;TL Method;U;U Units;U Method;V;V Units;V Method;W;W Units;W Method;Y;Y Units;Y Method;ZN;ZN Units;ZN Method;ZR;ZR Units;ZR Method;DELTA_O18;DELTA_O18 Units;DELTA_O18 Method;DELTA_C13;DELTA_C13 Units;DELTA_C13 Method;DELTA_MO98;DELTA_MO98 Units;DELTA_MO98 Method;DELTA_ZN66;DELTA_ZN66 Units;DELTA_ZN66 Method;DELTA_ZN68;DELTA_ZN68 Units;DELTA_ZN68 Method;OS188;OS188 Units;OS188 Method;FE3P_FET;FE3P_FET Units;FE3P_FET Method;TI;TI Units;TI Method;AS;AS Units;AS Method;AS;AS Units;AS Method;GER;GER Units;GER Method;H2O_M;H2O_M Units;H2O_M Method;H2O_P;H2O_P Units;H2O_P Method;H2O_M;H2O_M Units;H2O_M Method;H2O_P;H2O_P Units;H2O_P Method;INDIUM;INDIUM Units;INDIUM Method
GROSCAMP-W-236263;;GROSSMAN-CAMP;GROSSMAN, 1991;39,7425;-77,2822;0,001;;;CONTINENTAL_RIFT;;;;"AAS; COL; ICP; INAA; TITR; Unknown";WHOLE ROCK;IGNEOUS:VOLCANIC:MAFIC;DIABASE;;52,2;wt%;COL;1,1;wt%;COL;14,4;wt%;COL;;;;1,7;wt%;Unknown;;;;8,6;wt%;TITR;;;;;;;0,17;wt%;AAS;7,2;wt%;AAS;10,4;wt%;Unknown;;;;2,48;wt%;Unknown;0,67;wt%;AAS;0,15;wt%;COL;;;;;;;;;;0,04;wt%;TITR;0,73;wt%;TITR;;;;;;;;;;86;ppm;Unknown;47;ppm;Unknown;95;ppm;Unknown;;;;65;ppm;Unknown;1,5;ppm;INAA;;;;0,01;ppm;INAA;;;;;;;;;;;;;;;;;;;;;;;;;;;;;;;;;;;;;;;;;;;;;;;;;;;;;;;;;;;;;;;;;;;;;;;;;;;;;;;;;;;;;;;;;;;;;;;;;;;;;;;;;;;;;;;;;;;;;;;;;13;ppm;INAA;23;ppm;INAA;;;;15;ppm;INAA;3,7;ppm;INAA;1,1;ppm;INAA;;;;0,66;ppm;INAA;;;;;;;;;;;;;2,3;ppm;INAA;0,39;ppm;INAA;0,05;ppm;TITR;0,02;ppm;INAA;0,03;ppm;INAA;;;;;;;;;;;;;;;;;;;;;;1,5;ppm;INAA;;;;;;;151;ppm;Unknown;;;;;;;;;;;;;47;ppm;Unknown;258;ppm;Unknown;0,85;ppm;INAA;95;ppm;Unknown;;;;;;;2,7;ppm;INAA;;;;;;;;;;;;;;;;;;;;;;7;ppm;ICP;86;ppm;Unknown;;;;;;;;;;4,9;ppm;Unknown;3,4;ppm;Unknown;25;ppm;Unknown;;;;;;;;;;0,01;ppm;INAA;0,24;ppm;INAA;38;ppm;INAA;;;;199;ppm;Unknown;0,54;ppm;INAA;2,3;ppm;INAA;;;;;;;0,42;ppm;INAA;;;;;;;23;ppm;Unknown;65;ppm;Unknown;105;ppm;Unknown;;;;;;;;;;;;;;;;;;;;;;;;;1,5;ppm;INAA;1,5;ppm;INAA;;;;0,04;wt%;TITR;0,73;wt%;TITR;0,04;wt%;TITR;0,73;wt%;TITR;;;
GROSCAMP-W-236264;;GROSSMAN-CAMP;GROSSMAN, 1991;39,9103;-77,3231;0,001;;;CONTINENTAL_RIFT;;;;"AAS; COL; ICP; INAA; TITR; Unknown";WHOLE ROCK;IGNEOUS:VOLCANIC:MAFIC;DIABASE;;51,5;wt%;COL;1,2;wt%;COL;14,8;wt%;COL;;;;2,6;wt%;Unknown;;;;8;wt%;TITR;;;;;;;0,16;wt%;AAS;6;wt%;AAS;10,3;wt%;Unknown;;;;2,61;wt%;Unknown;0,62;wt%;AAS;0,15;wt%;COL;;;;;;;;;;0,38;wt%;TITR;1,7;wt%;TITR;;;;;;;;;;84;ppm;Unknown;47;ppm;Unknown;103;ppm;Unknown;;;;70;ppm;Unknown;2,5;ppm;INAA;;;;0,03;ppm;INAA;;;;;;;;;;;;;;;;;;;;;;;;;;;;;;;;;;;;;;;;;;;;;;;;;;;;;;;;;;;;;;;;;;;;;;;;;;;;;;;;;;;;;;;;;;;;;;;;;;;;;;;;;;;;;;;;;;;;;;;;;14,3;ppm;INAA;26;ppm;INAA;;;;14;ppm;INAA;4;ppm;INAA;1,3;ppm;INAA;;;;0,75;ppm;INAA;;;;;;;;;;;;;2,4;ppm;INAA;0,41;ppm;INAA;0,03;ppm;TITR;0,02;ppm;INAA;0,02;ppm;INAA;;;;;;;;;;;;;;;;;;;;;;2,5;ppm;INAA;;;;;;;184;ppm;Unknown;;;;;;;;;;;;;47;ppm;Unknown;132;ppm;Unknown;1;ppm;INAA;103;ppm;Unknown;;;;;;;2,99;ppm;INAA;;;;;;;;;;;;;;;;;;;;;;7,3;ppm;ICP;84;ppm;Unknown;;;;;;;;;;9,9;ppm;Unknown;8,3;ppm;Unknown;22;ppm;Unknown;;;;;;;;;;0,03;ppm;INAA;;;;37;ppm;INAA;;;;194;ppm;Unknown;0,63;ppm;INAA;2,5;ppm;INAA;;;;;;;0,51;ppm;INAA;;;;;;;31;ppm;Unknown;70;ppm;Unknown;110;ppm;Unknown;;;;;;;;;;;;;;;;;;;;;;;;;2,5;ppm;INAA;2,5;ppm;INAA;;;;0,38;wt%;TITR;1,7;wt%;TITR;0,38;wt%;TITR;1,7;wt%;TITR;;;
GROSCAMP-W-237181;;GROSSMAN-CAMP;GROSSMAN, 1991;39,859;-77,2705;0,001;;;CONTINENTAL_RIFT;;;;"AAS; ES; ICP; INAA; Unknown";WHOLE ROCK;IGNEOUS:VOLCANIC:MAFIC;DIABASE;;;;;;;;;;;;;;;;;14,03;wt%;Unknown;;;;;;;;;;;;;;;;;;;;;;3,1;wt%;Unknown;;;;;;;;;;;;;;;;;;;;;;;;;;;;;;;9;ppm;Unknown;34;ppm;Unknown;176;ppm;Unknown;;;;93;ppm;Unknown;;;;0,12;ppm;AAS;0,07;ppm;INAA;;;;;;;;;;;;;;;;;;;;;;;;;;;;;;;;;;;;;;;;;;;;;;;;;;;;;;;;;;;;;;;;;;;;;;;;;;;;;;;;;;;;;;;;;;;;;;;;;;;;;;;;;;;;;;;;;;;;;;;;;35;ppm;INAA;72;ppm;INAA;;;;41;ppm;INAA;9,2;ppm;INAA;2,2;ppm;INAA;;;;1,5;ppm;INAA;;;;;;;;;;;;;5,2;ppm;INAA;0,7;ppm;INAA;;;;0,07;ppm;INAA;0,17;ppm;INAA;;;;;;;;;;;;;;;;0,12;ppm;AAS;;;;;;;;;;21;ppm;ES;470;ppm;Unknown;;;;;;;;;;;;;34;ppm;Unknown;;;;1,8;ppm;INAA;176;ppm;Unknown;;;;;;;7,6;ppm;INAA;;;;;;;;;;;;;;;;;;;;;;18;ppm;ICP;9;ppm;Unknown;;;;;;;;;;19;ppm;Unknown;6,2;ppm;Unknown;56;ppm;Unknown;;;;;;;;;;0,07;ppm;INAA;;;;29,8;ppm;INAA;;;;199;ppm;Unknown;1,4;ppm;INAA;8,2;ppm;INAA;;;;;;;1,8;ppm;INAA;;;;;;;49;ppm;Unknown;93;ppm;Unknown;278;ppm;Unknown;;;;;;;;;;;;;;;;;;;;;;;;;;;;;;;;;;;;;;;;;;;;;;;;
GROSCAMP-W-236265;;GROSSMAN-CAMP;GROSSMAN, 1991;39,7425;-77,2822;0,001;;;CONTINENTAL_RIFT;;;;"AAS; COL; ICP; INAA; TITR; Unknown";WHOLE ROCK;IGNEOUS:VOLCANIC:MAFIC;DIABASE;;52,6;wt%;COL;1,1;wt%;COL;13,1;wt%;COL;;;;3,7;wt%;Unknown;;;;5,7;wt%;TITR;;;;;;;0,16;wt%;AAS;6,1;wt%;AAS;8,8;wt%;Unknown;;;;4,88;wt%;Unknown;0,21;wt%;AAS;0,15;wt%;COL;;;;;;;;;;1,2;wt%;TITR;2,6;wt%;TITR;;;;;;;;;;89;ppm;Unknown;40;ppm;Unknown;112;ppm;Unknown;;;;56;ppm;Unknown;2,4;ppm;INAA;;;;;;;;;;;;;;;;;;;;;;;;;;;;;;;;;;;;;;;;;;;;;;;;;;;;;;;;;;;;;;;;;;;;;;;;;;;;;;;;;;;;;;;;;;;;;;;;;;;;;;;;;;;;;;;;;;;;;;;;;;;;;;;11;ppm;INAA;20,6;ppm;INAA;;;;13;ppm;INAA;3,2;ppm;INAA;1,08;ppm;INAA;;;;0,56;ppm;INAA;;;;;;;;;;;;;2;ppm;INAA;0,3;ppm;INAA;0,01;ppm;TITR;0,02;ppm;INAA;0,01;ppm;INAA;;;;;;;;;;;;;;;;;;;;;;2,4;ppm;INAA;;;;;;;34;ppm;Unknown;;;;;;;;;;;;;40;ppm;Unknown;217;ppm;Unknown;;;;112;ppm;Unknown;;;;;;;2,3;ppm;INAA;;;;;;;;;;;;;;;;;;;;;;6,2;ppm;ICP;89;ppm;Unknown;;;;;;;;;;7;ppm;Unknown;7,3;ppm;Unknown;7;ppm;Unknown;;;;0,8;ppm;Unknown;;;;;;;;;;34;ppm;INAA;;;;110;ppm;Unknown;0,49;ppm;INAA;2;ppm;INAA;;;;;;;0,37;ppm;INAA;;;;;;;25;ppm;Unknown;56;ppm;Unknown;91;ppm;Unknown;;;;;;;;;;;;;;;;;;;;;;;;;2,4;ppm;INAA;2,4;ppm;INAA;;;;1,2;wt%;TITR;2,6;wt%;TITR;1,2;wt%;TITR;2,6;wt%;TITR;;;
GROSCAMP-W-236266;;GROSSMAN-CAMP;GROSSMAN, 1991;39,8244;-77,3381;0,001;;;CONTINENTAL_RIFT;;;;"AAS; COL; ICP; INAA; TITR; Unknown";WHOLE ROCK;IGNEOUS:VOLCANIC:MAFIC;DIABASE;;52;wt%;COL;1,1;wt%;COL;14,1;wt%;COL;;;;1,3;wt%;Unknown;;;;8,8;wt%;TITR;;;;;;;0,17;wt%;AAS;7,3;wt%;AAS;10,4;wt%;Unknown;;;;2,57;wt%;Unknown;0,67;wt%;AAS;0,15;wt%;COL;;;;;;;;;;0,17;wt%;TITR;0,82;wt%;TITR;;;;;;;;;;95;ppm;Unknown;47;ppm;Unknown;86;ppm;Unknown;;;;70;ppm;Unknown;1,9;ppm;INAA;;;;0,02;ppm;INAA;;;;;;;;;;;;;;;;;;;;;;;;;;;;;;;;;;;;;;;;;;;;;;;;;;;;;;;;;;;;;;;;;;;;;;;;;;;;;;;;;;;;;;;;;;;;;;;;;;;;;;;;;;;;;;;;;;;;;;;;;12;ppm;INAA;24;ppm;INAA;;;;16;ppm;INAA;3,6;ppm;INAA;1,1;ppm;INAA;;;;0,69;ppm;INAA;;;;;;;;;;;;;2,2;ppm;INAA;0,35;ppm;INAA;0,04;ppm;TITR;0,02;ppm;INAA;0,06;ppm;INAA;;;;;;;;;;;;;;;;;;;;;;1,9;ppm;INAA;;;;;;;170;ppm;Unknown;;;;;;;;;;;;;47;ppm;Unknown;267;ppm;Unknown;3,2;ppm;INAA;86;ppm;Unknown;;;;;;;2,5;ppm;INAA;;;;;;;;;;;;;;;;;;;;;;7,3;ppm;ICP;95;ppm;Unknown;;;;;;;;;;8,5;ppm;Unknown;8;ppm;Unknown;30;ppm;Unknown;;;;;;;;;;0,02;ppm;INAA;;;;38;ppm;INAA;;;;202;ppm;Unknown;0,57;ppm;INAA;2,2;ppm;INAA;;;;;;;0,54;ppm;INAA;;;;;;;25;ppm;Unknown;70;ppm;Unknown;97;ppm;Unknown;;;;;;;;;;;;;;;;;;;;;;;;;1,9;ppm;INAA;1,9;ppm;INAA;;;;0,17;wt%;TITR;0,82;wt%;TITR;0,17;wt%;TITR;0,82;wt%;TITR;;;
GROSCAMP-W-236268;;GROSSMAN-CAMP;GROSSMAN, 1991;44,0383;-76,9239;0,001;;;CONTINENTAL_RIFT;;;;"AAS; COL; ICP; INAA; TITR; Unknown";WHOLE ROCK;IGNEOUS:VOLCANIC:MAFIC;DIABASE;;50,8;wt%;COL;0,72;wt%;COL;15,2;wt%;COL;;;;1,1;wt%;Unknown;;;;9,2;wt%;TITR;;;;;;;0,19;wt%;AAS;8,1;wt%;AAS;11,1;wt%;Unknown;;;;2,17;wt%;Unknown;0,35;wt%;AAS;0,11;wt%;COL;;;;;;;;;;;;;1,1;wt%;TITR;;;;;;;;;;76;ppm;Unknown;50;ppm;Unknown;54;ppm;Unknown;;;;77;ppm;Unknown;1,4;ppm;INAA;;;;0,05;ppm;INAA;;;;;;;;;;;;;;;;;;;;;;;;;;;;;;;;;;;;;;;;;;;;;;;;;;;;;;;;;;;;;;;;;;;;;;;;;;;;;;;;;;;;;;;;;;;;;;;;;;;;;;;;;;;;;;;;;;;;;;;;;7;ppm;INAA;12;ppm;INAA;;;;7,1;ppm;INAA;2,3;ppm;INAA;0,79;ppm;INAA;;;;0,55;ppm;INAA;;;;;;;;;;;;;2,5;ppm;INAA;0,37;ppm;INAA;0,03;ppm;TITR;0,04;ppm;INAA;;;;;;;;;;;;;;;;;;;;;;;;;1,4;ppm;INAA;;;;;;;94;ppm;Unknown;;;;;;;;;;;;;50;ppm;Unknown;257;ppm;Unknown;0,57;ppm;INAA;54;ppm;Unknown;;;;;;;1,6;ppm;INAA;;;;;;;;;;;;;;;;;;;;;;2,6;ppm;ICP;76;ppm;Unknown;;;;;;;;;;0,6;ppm;Unknown;1,6;ppm;Unknown;13;ppm;Unknown;;;;;;;;;;0,05;ppm;INAA;;;;44;ppm;INAA;;;;123;ppm;Unknown;0,22;ppm;INAA;1,2;ppm;INAA;;;;;;;0,45;ppm;INAA;;;;;;;23;ppm;Unknown;77;ppm;Unknown;61;ppm;Unknown;;;;;;;;;;;;;;;;;;;;;;;;;1,4;ppm;INAA;1,4;ppm;INAA;;;;;;;1,1;wt%;TITR;;;;1,1;wt%;TITR;;;
GROSCAMP-W-236270;;GROSSMAN-CAMP;GROSSMAN, 1991;39,7494;-77,2994;0,001;;;CONTINENTAL_RIFT;;;;"AAS; COL; ICP; INAA; TITR; Unknown";WHOLE ROCK;IGNEOUS:VOLCANIC:MAFIC;DIABASE;;49,4;wt%;COL;1,8;wt%;COL;14,1;wt%;COL;;;;2,4;wt%;Unknown;;;;10;wt%;TITR;;;;;;;0,2;wt%;AAS;6,5;wt%;AAS;9,4;wt%;Unknown;;;;2,72;wt%;Unknown;0,74;wt%;AAS;0,27;wt%;COL;;;;;;;;;;0,24;wt%;TITR;3,1;wt%;TITR;;;;;;;;;;81;ppm;Unknown;49;ppm;Unknown;93;ppm;Unknown;;;;77;ppm;Unknown;2,5;ppm;INAA;;;;0,01;ppm;INAA;;;;;;;;;;;;;;;;;;;;;;;;;;;;;;;;;;;;;;;;;;;;;;;;;;;;;;;;;;;;;;;;;;;;;;;;;;;;;;;;;;;;;;;;;;;;;;;;;;;;;;;;;;;;;;;;;;;;;;;;;15;ppm;INAA;30;ppm;INAA;;;;18;ppm;INAA;4,3;ppm;INAA;1,19;ppm;INAA;;;;0,79;ppm;INAA;;;;;;;;;;;;;2,5;ppm;INAA;0,37;ppm;INAA;0,06;ppm;TITR;0,04;ppm;INAA;0,05;ppm;INAA;;;;;;;;;;;;;;;;;;;;;;2,5;ppm;INAA;;;;;;;121;ppm;Unknown;;;;;;;;;;;;;49;ppm;Unknown;66;ppm;Unknown;;;;93;ppm;Unknown;;;;;;;4;ppm;INAA;;;;;;;;;;;;;;;;;;;;;;10;ppm;ICP;81;ppm;Unknown;;;;;;;;;;5,9;ppm;Unknown;19;ppm;Unknown;26;ppm;Unknown;;;;;;;;;;0,01;ppm;INAA;;;;34;ppm;INAA;;;;108;ppm;Unknown;0,71;ppm;INAA;2,7;ppm;INAA;;;;;;;0,56;ppm;INAA;;;;;;;31;ppm;Unknown;77;ppm;Unknown;146;ppm;Unknown;;;;;;;;;;;;;;;;;;;;;;;;;2,5;ppm;INAA;2,5;ppm;INAA;;;;0,24;wt%;TITR;3,1;wt%;TITR;0,24;wt%;TITR;3,1;wt%;TITR;;;
GROSCAMP-W-236271;;GROSSMAN-CAMP;GROSSMAN, 1991;44,0383;-76,9239;0,001;;;CONTINENTAL_RIFT;;;;"AAS; COL; ICP; INAA; TITR; Unknown";WHOLE ROCK;IGNEOUS:VOLCANIC:MAFIC;DIABASE;;51,6;wt%;COL;0,74;wt%;COL;15,2;wt%;COL;;;;1,6;wt%;Unknown;;;;9;wt%;TITR;;;;;;;0,19;wt%;AAS;8,2;wt%;AAS;11,3;wt%;Unknown;;;;2,14;wt%;Unknown;0,32;wt%;AAS;0,1;wt%;COL;;;;;;;;;;;;;0,62;wt%;TITR;;;;;;;;;;78;ppm;Unknown;49;ppm;Unknown;52;ppm;Unknown;;;;71;ppm;Unknown;;;;;;;0,04;ppm;INAA;;;;;;;;;;;;;;;;;;;;;;;;;;;;;;;;;;;;;;;;;;;;;;;;;;;;;;;;;;;;;;;;;;;;;;;;;;;;;;;;;;;;;;;;;;;;;;;;;;;;;;;;;;;;;;;;;;;;;;;;;5,6;ppm;INAA;13;ppm;INAA;;;;;;;2,17;ppm;INAA;0,78;ppm;INAA;;;;0,52;ppm;INAA;;;;;;;;;;;;;2,3;ppm;INAA;0,35;ppm;INAA;0,02;ppm;TITR;0,02;ppm;INAA;0,01;ppm;INAA;;;;;;;;;;;;;;;;;;;;;;;;;;;;;;;94;ppm;Unknown;;;;;;;;;;;;;49;ppm;Unknown;253;ppm;Unknown;0,48;ppm;INAA;52;ppm;Unknown;;;;;;;1,5;ppm;INAA;;;;;;;;;;;;;;;;;;;;;;2,9;ppm;ICP;78;ppm;Unknown;;;;;;;;;;0,8;ppm;Unknown;1,5;ppm;Unknown;13;ppm;Unknown;;;;;;;;;;0,04;ppm;INAA;;;;44;ppm;INAA;;;;129;ppm;Unknown;0,21;ppm;INAA;1,4;ppm;INAA;;;;;;;;;;;;;;;;23;ppm;Unknown;71;ppm;Unknown;64;ppm;Unknown;;;;;;;;;;;;;;;;;;;;;;;;;;;;;;;;;;;;;0,62;wt%;TITR;;;;0,62;wt%;TITR;;;
GROSCAMP-W-236273;;GROSSMAN-CAMP;GROSSMAN, 1991;39,8283;-77,3467;0,001;;;CONTINENTAL_RIFT;;;;"AAS; COL; ICP; INAA; TITR; Unknown";WHOLE ROCK;IGNEOUS:VOLCANIC:MAFIC;DIABASE;;51,4;wt%;COL;3;wt%;COL;12,5;wt%;COL;;;;4,1;wt%;Unknown;;;;11,6;wt%;TITR;;;;;;;0,21;wt%;AAS;2,7;wt%;AAS;6,9;wt%;Unknown;;;;2,83;wt%;Unknown;1,5;wt%;AAS;0,29;wt%;COL;;;;;;;;;;0,46;wt%;TITR;1,3;wt%;TITR;;;;;;;;;;9,4;ppm;Unknown;49;ppm;Unknown;620;ppm;Unknown;;;;149;ppm;Unknown;3;ppm;INAA;;;;0,05;ppm;INAA;;;;;;;;;;;;;;;;;;;;;;;;;;;;;;;;;;;;;;;;;;;;;;;;;;;;;;;;;;;;;;;;;;;;;;;;;;;;;;;;;;;;;;;;;;;;;;;;;;;;;;;;;;;;;;;;;;;;;;;;;26,2;ppm;INAA;47;ppm;INAA;;;;26;ppm;INAA;7,8;ppm;INAA;2,6;ppm;INAA;;;;1,6;ppm;INAA;;;;;;;;;;;;;4,6;ppm;INAA;0,71;ppm;INAA;0,02;ppm;TITR;0,04;ppm;INAA;0,26;ppm;INAA;;;;;;;;;;;;;;;;;;;;;;3;ppm;INAA;;;;;;;380;ppm;Unknown;;;;;;;;;;;;;49;ppm;Unknown;4,9;ppm;Unknown;1,6;ppm;INAA;620;ppm;Unknown;;;;;;;5,2;ppm;INAA;;;;;;;;;;;;;;;;;;;;;;17;ppm;ICP;9,4;ppm;Unknown;;;;;;;;;;0,6;ppm;Unknown;;;;64;ppm;Unknown;;;;;;;;;;0,05;ppm;INAA;;;;41;ppm;INAA;;;;255;ppm;Unknown;1,31;ppm;INAA;4,7;ppm;INAA;;;;;;;1;ppm;INAA;;;;;;;69;ppm;Unknown;149;ppm;Unknown;183;ppm;Unknown;;;;;;;;;;;;;;;;;;;;;;;;;3;ppm;INAA;3;ppm;INAA;;;;0,46;wt%;TITR;1,3;wt%;TITR;0,46;wt%;TITR;1,3;wt%;TITR;;;
GROSCAMP-W-236274;;GROSSMAN-CAMP;GROSSMAN, 1991;39,7486;-77,2825;0,001;;;CONTINENTAL_RIFT;;;;"AAS; COL; ICP; INAA; TITR; Unknown";WHOLE ROCK;IGNEOUS:VOLCANIC:MAFIC;DIABASE;;50,2;wt%;COL;0,77;wt%;COL;14,6;wt%;COL;;;;1,7;wt%;Unknown;;;;8;wt%;TITR;;;;;;;0,18;wt%;AAS;7,8;wt%;AAS;9,7;wt%;Unknown;;;;3,49;wt%;Unknown;0,9;wt%;AAS;0,1;wt%;COL;;;;;;;;;;0,29;wt%;TITR;2,7;wt%;TITR;;;;;;;;;;95;ppm;Unknown;49;ppm;Unknown;14;ppm;Unknown;;;;59;ppm;Unknown;1,7;ppm;INAA;;;;;;;;;;;;;;;;;;;;;;;;;;;;;;;;;;;;;;;;;;;;;;;;;;;;;;;;;;;;;;;;;;;;;;;;;;;;;;;;;;;;;;;;;;;;;;;;;;;;;;;;;;;;;;;;;;;;;;;;;;;;;;;6,8;ppm;INAA;15;ppm;INAA;;;;9;ppm;INAA;2,25;ppm;INAA;0,8;ppm;INAA;;;;0,43;ppm;INAA;;;;;;;;;;;;;1,6;ppm;INAA;0,24;ppm;INAA;0,04;ppm;TITR;0,02;ppm;INAA;0,05;ppm;INAA;;;;;;;;;;;;;;;;;;;;;;1,7;ppm;INAA;;;;;;;163;ppm;Unknown;;;;;;;;;;;;;49;ppm;Unknown;117;ppm;Unknown;2,3;ppm;INAA;14;ppm;Unknown;;;;;;;1,5;ppm;INAA;;;;;;;;;;;;;;;;;;;;;;4,7;ppm;ICP;95;ppm;Unknown;;;;;;;;;;4,8;ppm;Unknown;4,2;ppm;Unknown;29;ppm;Unknown;;;;;;;;;;;;;;;;39;ppm;INAA;;;;215;ppm;Unknown;0,31;ppm;INAA;1,4;ppm;INAA;;;;;;;0,4;ppm;INAA;;;;;;;15;ppm;Unknown;59;ppm;Unknown;65;ppm;Unknown;;;;;;;;;;;;;;;;;;;;;;;;;1,7;ppm;INAA;1,7;ppm;INAA;;;;0,29;wt%;TITR;2,7;wt%;TITR;0,29;wt%;TITR;2,7;wt%;TITR;;;
GROSCAMP-W-236275;;GROSSMAN-CAMP;GROSSMAN, 1991;39,7494;-77,2828;0,001;;;CONTINENTAL_RIFT;;;;"AAS; COL; ICP; INAA; TITR; Unknown";WHOLE ROCK;IGNEOUS:VOLCANIC:MAFIC;DIABASE;;52,2;wt%;COL;1,2;wt%;COL;14,2;wt%;COL;;;;1,5;wt%;Unknown;;;;8,9;wt%;TITR;;;;;;;0,17;wt%;AAS;7,4;wt%;AAS;10,7;wt%;Unknown;;;;2,16;wt%;Unknown;1;wt%;AAS;0,16;wt%;COL;;;;;;;;;;0,07;wt%;TITR;0,47;wt%;TITR;;;;;;;;;;97;ppm;Unknown;48;ppm;Unknown;90;ppm;Unknown;;;;70;ppm;Unknown;;;;;;;0,02;ppm;INAA;;;;;;;;;;;;;;;;;;;;;;;;;;;;;;;;;;;;;;;;;;;;;;;;;;;;;;;;;;;;;;;;;;;;;;;;;;;;;;;;;;;;;;;;;;;;;;;;;;;;;;;;;;;;;;;;;;;;;;;;;11,6;ppm;INAA;25;ppm;INAA;;;;13;ppm;INAA;3,7;ppm;INAA;1,1;ppm;INAA;;;;0,68;ppm;INAA;;;;;;;;;;;;;2,1;ppm;INAA;0,36;ppm;INAA;0,01;ppm;TITR;0,03;ppm;INAA;0,01;ppm;INAA;;;;;;;;;;;;;;;;;;;;;;;;;;;;;;;171;ppm;Unknown;;;;;;;;;;;;;48;ppm;Unknown;257;ppm;Unknown;1;ppm;INAA;90;ppm;Unknown;;;;;;;2,6;ppm;INAA;;;;;;;;;;;;;;;;;;;;;;7,8;ppm;ICP;97;ppm;Unknown;;;;;;;;;;9;ppm;Unknown;9,6;ppm;Unknown;26;ppm;Unknown;;;;0,7;ppm;Unknown;;;;0,02;ppm;INAA;;;;38;ppm;INAA;;;;196;ppm;Unknown;0,55;ppm;INAA;2,3;ppm;INAA;;;;;;;;;;;;;;;;30;ppm;Unknown;70;ppm;Unknown;101;ppm;Unknown;;;;;;;;;;;;;;;;;;;;;;;;;;;;;;;;;;0,07;wt%;TITR;0,47;wt%;TITR;0,07;wt%;TITR;0,47;wt%;TITR;;;
GROSCAMP-W-236276;;GROSSMAN-CAMP;GROSSMAN, 1991;39,7494;-77,2994;0,001;;;CONTINENTAL_RIFT;;;;"AAS; COL; ICP; INAA; TITR; Unknown";WHOLE ROCK;IGNEOUS:VOLCANIC:MAFIC;DIABASE;;53,2;wt%;COL;1,1;wt%;COL;14,5;wt%;COL;;;;1,5;wt%;Unknown;;;;8,8;wt%;TITR;;;;;;;0,17;wt%;AAS;7,4;wt%;AAS;10,5;wt%;Unknown;;;;2,4;wt%;Unknown;0,67;wt%;AAS;0,15;wt%;COL;;;;;;;;;;0,14;wt%;TITR;0,51;wt%;TITR;;;;;;;;;;95;ppm;Unknown;47;ppm;Unknown;87;ppm;Unknown;;;;64;ppm;Unknown;1,4;ppm;INAA;;;;0,02;ppm;INAA;;;;;;;;;;;;;;;;;;;;;;;;;;;;;;;;;;;;;;;;;;;;;;;;;;;;;;;;;;;;;;;;;;;;;;;;;;;;;;;;;;;;;;;;;;;;;;;;;;;;;;;;;;;;;;;;;;;;;;;;;11;ppm;INAA;23;ppm;INAA;;;;12;ppm;INAA;3,6;ppm;INAA;1,1;ppm;INAA;;;;0,63;ppm;INAA;;;;;;;;;;;;;2,3;ppm;INAA;0,32;ppm;INAA;0,03;ppm;TITR;0,03;ppm;INAA;0,01;ppm;INAA;;;;;;;;;;;;;;;;;;;;;;1,4;ppm;INAA;;;;;;;156;ppm;Unknown;;;;;;;;;;;;;47;ppm;Unknown;253;ppm;Unknown;0,88;ppm;INAA;87;ppm;Unknown;;;;;;;2,6;ppm;INAA;;;;;;;;;;;;;;;;;;;;;;7,3;ppm;ICP;95;ppm;Unknown;;;;;;;;;;8,9;ppm;Unknown;8,3;ppm;Unknown;22;ppm;Unknown;;;;;;;;;;0,02;ppm;INAA;;;;37;ppm;INAA;;;;192;ppm;Unknown;0,53;ppm;INAA;2,3;ppm;INAA;;;;;;;0,53;ppm;INAA;;;;;;;24;ppm;Unknown;64;ppm;Unknown;103;ppm;Unknown;;;;;;;;;;;;;;;;;;;;;;;;;1,4;ppm;INAA;1,4;ppm;INAA;;;;0,14;wt%;TITR;0,51;wt%;TITR;0,14;wt%;TITR;0,51;wt%;TITR;;;