SAMPLE ID;IGSN;EXPEDITION ID;REFERENCES;LATITUDE;LONGITUDE;LOC PREC;MIN ELEVATION;MAX ELEVATION;TECTONIC SETTING;MIN AGE;AGE;MAX AGE;METHOD;ANALYZED MATERIAL;ROCK TYPE;ROCK NAME;MINERAL;SIO2;SIO2 Units;SIO2 Method;TIO2;TIO2 Units;TIO2 Method;AL2O3;AL2O3 Units;AL2O3 Method;CR2O3;CR2O3 Units;CR2O3 Method;FE2O3;FE2O3 Units;FE2O3 Method;FE2O3T;FE2O3T Units;FE2O3T Method;FEO;FEO Units;FEO Method;FEOT;FEOT Units;FEOT Method;NIO;NIO Units;NIO Method;MNO;MNO Units;MNO Method;MGO;MGO Units;MGO Method;CAO;CAO Units;CAO Method;SRO;SRO Units;SRO Method;NA2O;NA2O Units;NA2O Method;K2O;K2O Units;K2O Method;P2O5;P2O5 Units;P2O5 Method;BAO;BAO Units;BAO Method;LOI;LOI Units;LOI Method;H2O;H2O Units;H2O Method;H2O_M;H2O_M Units;H2O_M Method;H2O_P;H2O_P Units;H2O_P Method;SO3;SO3 Units;SO3 Method;COO;COO Units;COO Method;MN;MN Units;MN Method;NI;NI Units;NI Method;CO;CO Units;CO Method;CU;CU Units;CU Method;CD;CD Units;CD Method;ZN;ZN Units;ZN Method;AS;AS Units;AS Method;AG;AG Units;AG Method;S;S Units;S Method;ZRO2;ZRO2 Units;ZRO2 Method;AL;AL Units;AL Method;CA;CA Units;CA Method;SR87_SR86;SR87_SR86 Units;SR87_SR86 Method;SR87_SR86_INI;SR87_SR86_INI Units;SR87_SR86_INI Method;RB87_SR86;RB87_SR86 Units;RB87_SR86 Method;ND143_ND144;ND143_ND144 Units;ND143_ND144 Method;ND143_ND144_INI;ND143_ND144_INI Units;ND143_ND144_INI Method;SM147_ND144;SM147_ND144 Units;SM147_ND144 Method;E_ND;E_ND Units;E_ND Method;E_ND_INI;E_ND_INI Units;E_ND_INI Method;PB204_PB206;PB204_PB206 Units;PB204_PB206 Method;PB206_PB204;PB206_PB204 Units;PB206_PB204 Method;PB206_PB204_INI;PB206_PB204_INI Units;PB206_PB204_INI Method;PB207_PB204;PB207_PB204 Units;PB207_PB204 Method;PB207_PB204_INI;PB207_PB204_INI Units;PB207_PB204_INI Method;PB207_PB206;PB207_PB206 Units;PB207_PB206 Method;PB208_PB204;PB208_PB204 Units;PB208_PB204 Method;PB208_PB204_INI;PB208_PB204_INI Units;PB208_PB204_INI Method;PB208_PB206;PB208_PB206 Units;PB208_PB206 Method;HF176_HF177;HF176_HF177 Units;HF176_HF177 Method;RE187_OS188;RE187_OS188 Units;RE187_OS188 Method;OS187_OS188;OS187_OS188 Units;OS187_OS188 Method;OS187_OS188_INI;OS187_OS188_INI Units;OS187_OS188_INI Method;G_OS;G_OS Units;G_OS Method;G_OS_INI;G_OS_INI Units;G_OS_INI Method;ND143_ND144_INI;ND143_ND144_INI Units;ND143_ND144_INI Method;PB206_PB204_INI;PB206_PB204_INI Units;PB206_PB204_INI Method;PB207_PB204_INI;PB207_PB204_INI Units;PB207_PB204_INI Method;PB208_PB204_INI;PB208_PB204_INI Units;PB208_PB204_INI Method;SR87_SR86_INI;SR87_SR86_INI Units;SR87_SR86_INI Method;HE;HE Units;HE Method;HE3;HE3 Units;HE3 Method;HE3_HE4_R_RA;HE3_HE4_R_RA Units;HE3_HE4_R_RA Method;AR36;AR36 Units;AR36 Method;AR40;AR40 Units;AR40 Method;AR40_AR36;AR40_AR36 Units;AR40_AR36 Method;NE20;NE20 Units;NE20 Method;NE20_NE22;NE20_NE22 Units;NE20_NE22 Method;NE21_NE22;NE21_NE22 Units;NE21_NE22 Method;LA;LA Units;LA Method;CE;CE Units;CE Method;PR;PR Units;PR Method;ND;ND Units;ND Method;SM;SM Units;SM Method;EU;EU Units;EU Method;GD;GD Units;GD Method;TB;TB Units;TB Method;DY;DY Units;DY Method;HO;HO Units;HO Method;ER;ER Units;ER Method;TM;TM Units;TM Method;YB;YB Units;YB Method;LU;LU Units;LU Method;CO2;CO2 Units;CO2 Method;F;F Units;F Method;CL;CL Units;CL Method;U238_PB204;U238_PB204 Units;U238_PB204 Method;TH230_TH232;TH230_TH232 Units;TH230_TH232 Method;RA226_ACTIVITY;RA226_ACTIVITY Units;RA226_ACTIVITY Method;PB210_RA226;PB210_RA226 Units;PB210_RA226 Method;PB210_ACTIVITY;PB210_ACTIVITY Units;PB210_ACTIVITY Method;AG;AG Units;AG Method;AL;AL Units;AL Method;AS;AS Units;AS Method;AU;AU Units;AU Method;B;B Units;B Method;BA;BA Units;BA Method;BE;BE Units;BE Method;BI;BI Units;BI Method;CA;CA Units;CA Method;CD;CD Units;CD Method;CO;CO Units;CO Method;CR;CR Units;CR Method;CS;CS Units;CS Method;CU;CU Units;CU Method;GA;GA Units;GA Method;GER;GER Units;GER Method;HF;HF Units;HF Method;INDIUM;INDIUM Units;INDIUM Method;IR;IR Units;IR Method;K;K Units;K Method;LI;LI Units;LI Method;MN;MN Units;MN Method;MO;MO Units;MO Method;NA;NA Units;NA Method;NB;NB Units;NB Method;NI;NI Units;NI Method;OS;OS Units;OS Method;P;P Units;P Method;PB;PB Units;PB Method;PD;PD Units;PD Method;PT;PT Units;PT Method;RB;RB Units;RB Method;RE;RE Units;RE Method;RH;RH Units;RH Method;RU;RU Units;RU Method;S;S Units;S Method;SB;SB Units;SB Method;SC;SC Units;SC Method;SN;SN Units;SN Method;SR;SR Units;SR Method;TA;TA Units;TA Method;TH;TH Units;TH Method;TI;TI Units;TI Method;TL;TL Units;TL Method;U;U Units;U Method;V;V Units;V Method;W;W Units;W Method;Y;Y Units;Y Method;ZN;ZN Units;ZN Method;ZR;ZR Units;ZR Method;DELTA_O18;DELTA_O18 Units;DELTA_O18 Method;DELTA_C13;DELTA_C13 Units;DELTA_C13 Method;DELTA_MO98;DELTA_MO98 Units;DELTA_MO98 Method;DELTA_ZN66;DELTA_ZN66 Units;DELTA_ZN66 Method;DELTA_ZN68;DELTA_ZN68 Units;DELTA_ZN68 Method;OS188;OS188 Units;OS188 Method;FE3P_FET;FE3P_FET Units;FE3P_FET Method;TI;TI Units;TI Method;AS;AS Units;AS Method;AS;AS Units;AS Method;GER;GER Units;GER Method;H2O_M;H2O_M Units;H2O_M Method;H2O_P;H2O_P Units;H2O_P Method;H2O_M;H2O_M Units;H2O_M Method;H2O_P;H2O_P Units;H2O_P Method;INDIUM;INDIUM Units;INDIUM Method
GROSCAMP-W-241802;;GROSSMAN-CAMP;GROSSMAN, 1991;36,1156;-78,7722;0,001;;;CONTINENTAL_RIFT;;;;"AAS; COL; ES; ICP; ICPMS; INAA; TITR; Unknown";WHOLE ROCK;IGNEOUS:VOLCANIC:MAFIC;DIABASE;;49,5;wt%;COL;0,39;wt%;COL;20,2;wt%;COL;;;;2,04;wt%;Unknown;;;;5;wt%;TITR;;;;;;;0,12;wt%;AAS;8,02;wt%;AAS;12,5;wt%;Unknown;;;;2,24;wt%;Unknown;0,32;wt%;AAS;0,07;wt%;COL;;;;;;;;;;0,27;wt%;TITR;0,41;wt%;TITR;;;;;;;;;;178;ppm;Unknown;42;ppm;Unknown;70;ppm;Unknown;;;;64;ppm;Unknown;;;;;;;0,03;ppm;INAA;;;;;;;;;;;;;;;;;;;;;;;;;;;;;;;;;;;;;;;;;;;;;;;;;;;;;;;;;;;;;;;;;;;;;;;;;;;;;;;;;;;;;;;;;;;;;;;;;;;;;;;;;;;;;;;;;;;;;;;;;3,9;ppm;INAA;9;ppm;INAA;;;;5;ppm;INAA;1,42;ppm;INAA;0,54;ppm;INAA;;;;0,31;ppm;INAA;;;;;;;;;;;;;1,7;ppm;INAA;0,25;ppm;INAA;0,06;ppm;TITR;0,01;ppm;INAA;0;ppm;INAA;;;;;;;;;;;;;;;;;;;;;;;;;;;;2;ppm;ES;88;ppm;Unknown;;;;;;;;;;;;;42;ppm;Unknown;370;ppm;Unknown;;;;70;ppm;Unknown;;;;;;;0,91;ppm;INAA;;;;;;;;;;;;;;;;;;;;;;1,5;ppm;ICP;178;ppm;Unknown;;;;;;;;;;7,9;ppm;Unknown;9,5;ppm;Unknown;12;ppm;Unknown;;;;;;;2,4;ppm;ICPMS;0,03;ppm;INAA;;;;27,9;ppm;INAA;;;;164;ppm;Unknown;0,13;ppm;INAA;0,46;ppm;INAA;;;;;;;;;;;;;;;;24;ppm;Unknown;64;ppm;Unknown;49;ppm;Unknown;;;;;;;;;;;;;;;;;;;;;;;;;;;;;;;;;;0,27;wt%;TITR;0,41;wt%;TITR;0,27;wt%;TITR;0,41;wt%;TITR;;;
GROSCAMP-W-241803;;GROSSMAN-CAMP;GROSSMAN, 1991;36,1156;-78,7722;0,001;;;CONTINENTAL_RIFT;;;;"AAS; COL; ES; ICPMS; INAA; TITR; Unknown";WHOLE ROCK;IGNEOUS:VOLCANIC:MAFIC;DIABASE;;49,1;wt%;COL;0,31;wt%;COL;18,1;wt%;COL;;;;1,76;wt%;Unknown;;;;5,4;wt%;TITR;;;;;;;0,13;wt%;AAS;10;wt%;AAS;13,1;wt%;Unknown;;;;1,83;wt%;Unknown;0,2;wt%;AAS;0,05;wt%;COL;;;;;;;;;;0,26;wt%;TITR;0,36;wt%;TITR;;;;;;;;;;218;ppm;Unknown;47;ppm;Unknown;55;ppm;Unknown;;;;72;ppm;Unknown;;;;;;;0,02;ppm;INAA;;;;;;;;;;;;;;;;;;;;;;;;;;;;;;;;;;;;;;;;;;;;;;;;;;;;;;;;;;;;;;;;;;;;;;;;;;;;;;;;;;;;;;;;;;;;;;;;;;;;;;;;;;;;;;;;;;;;;;;;;2,7;ppm;INAA;7;ppm;INAA;;;;4,2;ppm;INAA;1,1;ppm;INAA;0,44;ppm;INAA;;;;0,28;ppm;INAA;;;;;;;;;;;;;1,5;ppm;INAA;0,21;ppm;INAA;0,04;ppm;TITR;0,01;ppm;INAA;;;;;;;;;;;;;;;;;;;;;;;;;;;;;;;3;ppm;ES;69;ppm;Unknown;;;;;;;;;;;;;47;ppm;Unknown;850;ppm;Unknown;;;;55;ppm;Unknown;;;;;;;0,73;ppm;INAA;;;;;;;;;;;;;;;;;;;;;;;;;218;ppm;Unknown;;;;;;;;;;9,9;ppm;Unknown;7,3;ppm;Unknown;4;ppm;Unknown;;;;;;;2,2;ppm;ICPMS;0,02;ppm;INAA;;;;35;ppm;INAA;;;;142;ppm;Unknown;;;;0,5;ppm;INAA;;;;;;;0,29;ppm;INAA;;;;;;;12;ppm;Unknown;72;ppm;Unknown;41;ppm;Unknown;;;;;;;;;;;;;;;;;;;;;;;;;;;;;;;;;;0,26;wt%;TITR;0,36;wt%;TITR;0,26;wt%;TITR;0,36;wt%;TITR;;;
GROSCAMP-W-241804;;GROSSMAN-CAMP;GROSSMAN, 1991;36,1156;-78,7722;0,001;;;CONTINENTAL_RIFT;;;;"AAS; COL; ES; ICP; ICPMS; INAA; TITR; Unknown";WHOLE ROCK;IGNEOUS:VOLCANIC:MAFIC;DIABASE;;49;wt%;COL;0,41;wt%;COL;15,5;wt%;COL;;;;1,95;wt%;Unknown;;;;6,52;wt%;TITR;;;;;;;0,15;wt%;AAS;11,9;wt%;AAS;12,4;wt%;Unknown;;;;1,67;wt%;Unknown;0,25;wt%;AAS;0,07;wt%;COL;;;;;;;;;;0,28;wt%;TITR;0,55;wt%;TITR;;;;;;;;;;267;ppm;Unknown;57;ppm;Unknown;56;ppm;Unknown;;;;70;ppm;Unknown;;;;;;;0,02;ppm;INAA;;;;;;;;;;;;;;;;;;;;;;;;;;;;;;;;;;;;;;;;;;;;;;;;;;;;;;;;;;;;;;;;;;;;;;;;;;;;;;;;;;;;;;;;;;;;;;;;;;;;;;;;;;;;;;;;;;;;;;;;;3,7;ppm;INAA;9,2;ppm;INAA;;;;4,6;ppm;INAA;1,47;ppm;INAA;0,49;ppm;INAA;;;;0,37;ppm;INAA;;;;;;;;;;;;;1,79;ppm;INAA;0,26;ppm;INAA;0,05;ppm;TITR;0,01;ppm;INAA;;;;;;;;;;;;;;;;;;;;;;;;;;;;5,4;ppm;INAA;3;ppm;ES;71;ppm;Unknown;;;;;;;;;;;;;57;ppm;Unknown;940;ppm;Unknown;;;;56;ppm;Unknown;;;;;;;1;ppm;INAA;;;;;;;;;;;;;;;;;;;;;;1,5;ppm;ICP;267;ppm;Unknown;;;;;;;;;;7,9;ppm;Unknown;6,6;ppm;Unknown;4;ppm;Unknown;;;;;;;2,4;ppm;ICPMS;0,02;ppm;INAA;;;;40;ppm;INAA;;;;127;ppm;Unknown;0,14;ppm;INAA;0,42;ppm;INAA;;;;;;;;;;;;;;;;24;ppm;Unknown;70;ppm;Unknown;53;ppm;Unknown;;;;;;;;;;;;;;;;;;;;;;;;;;;;;;;;;;0,28;wt%;TITR;0,55;wt%;TITR;0,28;wt%;TITR;0,55;wt%;TITR;;;
GROSCAMP-W-241805;;GROSSMAN-CAMP;GROSSMAN, 1991;36,1156;-78,7722;0,001;;;CONTINENTAL_RIFT;;;;"AAS; COL; ES; ICP; ICPMS; INAA; TITR; Unknown";WHOLE ROCK;IGNEOUS:VOLCANIC:MAFIC;DIABASE;;48,5;wt%;COL;0,32;wt%;COL;16,9;wt%;COL;;;;1,59;wt%;Unknown;;;;6,37;wt%;TITR;;;;;;;0,14;wt%;AAS;11,4;wt%;AAS;12,3;wt%;Unknown;;;;1,75;wt%;Unknown;0,2;wt%;AAS;0,06;wt%;COL;;;;;;;;;;0,24;wt%;TITR;0,5;wt%;TITR;;;;;;;;;;267;ppm;Unknown;57;ppm;Unknown;54;ppm;Unknown;;;;74;ppm;Unknown;;;;;;;0,02;ppm;INAA;;;;;;;;;;;;;;;;;;;;;;;;;;;;;;;;;;;;;;;;;;;;;;;;;;;;;;;;;;;;;;;;;;;;;;;;;;;;;;;;;;;;;;;;;;;;;;;;;;;;;;;;;;;;;;;;;;;;;;;;;2,8;ppm;INAA;7,5;ppm;INAA;;;;4;ppm;INAA;1,16;ppm;INAA;0,44;ppm;INAA;;;;0,28;ppm;INAA;;;;;;;;;;;;;1,4;ppm;INAA;0,19;ppm;INAA;0,04;ppm;TITR;0,01;ppm;INAA;0,01;ppm;INAA;;;;;;;;;;;;;;;;;;;;;;;;;;;;2;ppm;ES;61;ppm;Unknown;;;;;;;;;;;;;57;ppm;Unknown;780;ppm;Unknown;;;;54;ppm;Unknown;;;;;;;0,77;ppm;INAA;;;;;;;;;;;;;;;;;;;;;;1,2;ppm;ICP;267;ppm;Unknown;;;;;;;;;;6,5;ppm;Unknown;8,2;ppm;Unknown;15;ppm;Unknown;;;;;;;2;ppm;ICPMS;0,02;ppm;INAA;;;;34;ppm;INAA;;;;141;ppm;Unknown;0,17;ppm;INAA;0,4;ppm;INAA;;;;;;;;;;;;;;;;13;ppm;Unknown;74;ppm;Unknown;40;ppm;Unknown;;;;;;;;;;;;;;;;;;;;;;;;;;;;;;;;;;0,24;wt%;TITR;0,5;wt%;TITR;0,24;wt%;TITR;0,5;wt%;TITR;;;
GROSCAMP-W-241806;;GROSSMAN-CAMP;GROSSMAN, 1991;36,1156;-78,7722;0,001;;;CONTINENTAL_RIFT;;;;"AAS; COL; ES; ICP; ICPMS; INAA; TITR; Unknown";WHOLE ROCK;IGNEOUS:VOLCANIC:MAFIC;DIABASE;;48,7;wt%;COL;0,35;wt%;COL;15,9;wt%;COL;;;;2,02;wt%;Unknown;;;;6,75;wt%;TITR;;;;;;;0,15;wt%;AAS;11,9;wt%;AAS;12,3;wt%;Unknown;;;;1,75;wt%;Unknown;0,21;wt%;AAS;0,06;wt%;COL;;;;;;;;;;0,29;wt%;TITR;0,52;wt%;TITR;;;;;;;;;;271;ppm;Unknown;59;ppm;Unknown;58;ppm;Unknown;;;;58;ppm;Unknown;;;;;;;0,03;ppm;INAA;;;;;;;;;;;;;;;;;;;;;;;;;;;;;;;;;;;;;;;;;;;;;;;;;;;;;;;;;;;;;;;;;;;;;;;;;;;;;;;;;;;;;;;;;;;;;;;;;;;;;;;;;;;;;;;;;;;;;;;;;3,3;ppm;INAA;8,2;ppm;INAA;;;;5,1;ppm;INAA;1,31;ppm;INAA;0,46;ppm;INAA;;;;0,31;ppm;INAA;;;;;;;;;;;;;1,7;ppm;INAA;0,23;ppm;INAA;0,04;ppm;TITR;0,01;ppm;INAA;;;;;;;;;;;;;;;;;;;;;;;;;;;;;;;3;ppm;ES;65;ppm;Unknown;;;;;;;;;;;;;59;ppm;Unknown;870;ppm;Unknown;0,22;ppm;INAA;58;ppm;Unknown;;;;;;;0,85;ppm;INAA;;;;;;;;;;;;;;;;;;;;;;1,4;ppm;ICP;271;ppm;Unknown;;;;;;;;;;5,4;ppm;Unknown;5;ppm;Unknown;6;ppm;Unknown;;;;;;;1;ppm;ICPMS;0,03;ppm;INAA;;;;39;ppm;INAA;;;;128;ppm;Unknown;;;;0,34;ppm;INAA;;;;;;;;;;;;;;;;14;ppm;Unknown;58;ppm;Unknown;44;ppm;Unknown;;;;;;;;;;;;;;;;;;;;;;;;;;;;;;;;;;0,29;wt%;TITR;0,52;wt%;TITR;0,29;wt%;TITR;0,52;wt%;TITR;;;
GROSCAMP-W-241807;;GROSSMAN-CAMP;GROSSMAN, 1991;36,1156;-78,7722;0,001;;;CONTINENTAL_RIFT;;;;"AAS; COL; ES; ICP; ICPMS; INAA; TITR; Unknown";WHOLE ROCK;IGNEOUS:VOLCANIC:MAFIC;DIABASE;;49;wt%;COL;0,39;wt%;COL;15,8;wt%;COL;;;;2,29;wt%;Unknown;;;;6,2;wt%;TITR;;;;;;;0,15;wt%;AAS;11;wt%;AAS;12,3;wt%;Unknown;;;;1,75;wt%;Unknown;0,24;wt%;AAS;0,06;wt%;COL;;;;;;;;;;0,46;wt%;TITR;0,54;wt%;TITR;;;;;;;;;;233;ppm;Unknown;53;ppm;Unknown;59;ppm;Unknown;;;;72;ppm;Unknown;;;;;;;;;;;;;;;;;;;;;;;;;;;;;;;;;;;;;;;;;;;;;;;;;;;;;;;;;;;;;;;;;;;;;;;;;;;;;;;;;;;;;;;;;;;;;;;;;;;;;;;;;;;;;;;;;;;;;;;;;;;;;;;;;;3,6;ppm;INAA;8,1;ppm;INAA;;;;4;ppm;INAA;1,41;ppm;INAA;0,5;ppm;INAA;;;;0,32;ppm;INAA;;;;;;;;;;;;;1,8;ppm;INAA;0,24;ppm;INAA;0,08;ppm;TITR;0,01;ppm;INAA;;;;;;;;;;;;;;;;;;;;;;;;;;;;10;ppm;INAA;2;ppm;ES;73;ppm;Unknown;;;;;;;;;;;;;53;ppm;Unknown;860;ppm;Unknown;;;;59;ppm;Unknown;;;;;;;1,2;ppm;INAA;;;;;;;;;;;;;;;;;;;;;;1,3;ppm;ICP;233;ppm;Unknown;;;;;;;;;;7,5;ppm;Unknown;;;;;;;;;;;;;2;ppm;ICPMS;;;;;;;41;ppm;INAA;;;;120;ppm;Unknown;0,14;ppm;INAA;0,44;ppm;INAA;;;;;;;;;;;;;;;;14;ppm;Unknown;72;ppm;Unknown;40;ppm;Unknown;;;;;;;;;;;;;;;;;;;;;;;;;;;;;;;;;;0,46;wt%;TITR;0,54;wt%;TITR;0,46;wt%;TITR;0,54;wt%;TITR;;;
GROSCAMP-W-241808;;GROSSMAN-CAMP;GROSSMAN, 1991;36,1156;-78,7722;0,001;;;CONTINENTAL_RIFT;;;;"AAS; COL; ES; ICP; ICPMS; INAA; TITR; Unknown";WHOLE ROCK;IGNEOUS:VOLCANIC:MAFIC;DIABASE;;49;wt%;COL;0,43;wt%;COL;17,2;wt%;COL;;;;2,17;wt%;Unknown;;;;6,17;wt%;TITR;;;;;;;0,15;wt%;AAS;10,1;wt%;AAS;11,8;wt%;Unknown;;;;1,93;wt%;Unknown;0,3;wt%;AAS;0,07;wt%;COL;;;;;;;;;;0,36;wt%;TITR;0,75;wt%;TITR;;;;;;;;;;222;ppm;Unknown;52;ppm;Unknown;69;ppm;Unknown;;;;80;ppm;Unknown;;;;;;;0,1;ppm;INAA;;;;;;;;;;;;;;;;;;;;;;;;;;;;;;;;;;;;;;;;;;;;;;;;;;;;;;;;;;;;;;;;;;;;;;;;;;;;;;;;;;;;;;;;;;;;;;;;;;;;;;;;;;;;;;;;;;;;;;;;;4,2;ppm;INAA;9,2;ppm;INAA;;;;5,3;ppm;INAA;1,56;ppm;INAA;0,56;ppm;INAA;;;;0,41;ppm;INAA;;;;;;;;;;;;;1,9;ppm;INAA;0,28;ppm;INAA;0,07;ppm;TITR;0,01;ppm;INAA;;;;;;;;;;;;;;;;;;;;;;;;;;;;;;;2;ppm;ES;90;ppm;Unknown;;;;;;;;;;;;;52;ppm;Unknown;530;ppm;Unknown;0,54;ppm;INAA;69;ppm;Unknown;;;;;;;1,1;ppm;INAA;;;;;;;;;;;;;;;;;;;;;;1,7;ppm;ICP;222;ppm;Unknown;;;;;;;;;;7,4;ppm;Unknown;10;ppm;Unknown;11;ppm;Unknown;;;;;;;2,2;ppm;ICPMS;0,1;ppm;INAA;;;;34;ppm;INAA;;;;136;ppm;Unknown;;;;0,48;ppm;INAA;;;;;;;;;;;;;;;;25;ppm;Unknown;80;ppm;Unknown;59;ppm;Unknown;;;;;;;;;;;;;;;;;;;;;;;;;;;;;;;;;;0,36;wt%;TITR;0,75;wt%;TITR;0,36;wt%;TITR;0,75;wt%;TITR;;;
GROSCAMP-W-241809;;GROSSMAN-CAMP;GROSSMAN, 1991;36,1156;-78,7722;0,001;;;CONTINENTAL_RIFT;;;;"AAS; COL; ES; ICP; ICPMS; INAA; TITR; Unknown";WHOLE ROCK;IGNEOUS:VOLCANIC:MAFIC;DIABASE;;49,1;wt%;COL;0,44;wt%;COL;16,8;wt%;COL;;;;2,82;wt%;Unknown;;;;5,99;wt%;TITR;;;;;;;0,15;wt%;AAS;9,95;wt%;AAS;12;wt%;Unknown;;;;1,98;wt%;Unknown;0,29;wt%;AAS;0,08;wt%;COL;;;;;;;;;;0,5;wt%;TITR;0,64;wt%;TITR;;;;;;;;;;221;ppm;Unknown;53;ppm;Unknown;73;ppm;Unknown;;;;84;ppm;Unknown;;;;;;;;;;;;;;;;;;;;;;;;;;;;;;;;;;;;;;;;;;;;;;;;;;;;;;;;;;;;;;;;;;;;;;;;;;;;;;;;;;;;;;;;;;;;;;;;;;;;;;;;;;;;;;;;;;;;;;;;;;;;;;;;;;4,1;ppm;INAA;9,8;ppm;INAA;;;;6,4;ppm;INAA;1,6;ppm;INAA;0,54;ppm;INAA;;;;0,36;ppm;INAA;;;;;;;;;;;;;2,1;ppm;INAA;0,29;ppm;INAA;0,08;ppm;TITR;0,01;ppm;INAA;;;;;;;;;;;;;;;;;;;;;;;;;;;;;;;1;ppm;ES;85;ppm;Unknown;;;;;;;;;;;;;53;ppm;Unknown;630;ppm;Unknown;;;;73;ppm;Unknown;;;;;;;1;ppm;INAA;;;;;;;;;;;;;;;;;;;;;;1,6;ppm;ICP;221;ppm;Unknown;;;;;;;;;;8,1;ppm;Unknown;6,9;ppm;Unknown;8;ppm;Unknown;;;;;;;2;ppm;ICPMS;;;;;;;38;ppm;INAA;;;;140;ppm;Unknown;0,31;ppm;INAA;0,48;ppm;INAA;;;;;;;;;;;;;;;;22;ppm;Unknown;84;ppm;Unknown;52;ppm;Unknown;;;;;;;;;;;;;;;;;;;;;;;;;;;;;;;;;;0,5;wt%;TITR;0,64;wt%;TITR;0,5;wt%;TITR;0,64;wt%;TITR;;;
GROSCAMP-W-241810;;GROSSMAN-CAMP;GROSSMAN, 1991;36,1156;-78,7722;0,001;;;CONTINENTAL_RIFT;;;;"AAS; COL; ES; ICP; ICPMS; INAA; TITR; Unknown";WHOLE ROCK;IGNEOUS:VOLCANIC:MAFIC;DIABASE;;49,5;wt%;COL;0,47;wt%;COL;15,9;wt%;COL;;;;2,41;wt%;Unknown;;;;6,66;wt%;TITR;;;;;;;0,16;wt%;AAS;10,7;wt%;AAS;12,2;wt%;Unknown;;;;1,87;wt%;Unknown;0,28;wt%;AAS;0,08;wt%;COL;;;;;;;;;;0,25;wt%;TITR;0,47;wt%;TITR;;;;;;;;;;224;ppm;Unknown;54;ppm;Unknown;73;ppm;Unknown;;;;100;ppm;Unknown;;;;;;;;;;;;;;;;;;;;;;;;;;;;;;;;;;;;;;;;;;;;;;;;;;;;;;;;;;;;;;;;;;;;;;;;;;;;;;;;;;;;;;;;;;;;;;;;;;;;;;;;;;;;;;;;;;;;;;;;;;;;;;;;;;4,2;ppm;INAA;10;ppm;INAA;;;;5,3;ppm;INAA;1,65;ppm;INAA;0,53;ppm;INAA;;;;0,43;ppm;INAA;;;;;;;;;;;;;2,1;ppm;INAA;0,29;ppm;INAA;0,07;ppm;TITR;0,01;ppm;INAA;;;;;;;;;;;;;;;;;;;;;;;;;;;;;;;2;ppm;ES;86;ppm;Unknown;;;;;;;;;;;;;54;ppm;Unknown;760;ppm;Unknown;;;;73;ppm;Unknown;;;;;;;1,1;ppm;INAA;;;;;;;;;;;;;;;;;;;;;;1,5;ppm;ICP;224;ppm;Unknown;;;;;;;;;;8,3;ppm;Unknown;9,2;ppm;Unknown;8;ppm;Unknown;;;;;;;2;ppm;ICPMS;;;;;;;42;ppm;INAA;;;;130;ppm;Unknown;0,22;ppm;INAA;0,46;ppm;INAA;;;;;;;;;;;;;;;;19;ppm;Unknown;100;ppm;Unknown;52;ppm;Unknown;;;;;;;;;;;;;;;;;;;;;;;;;;;;;;;;;;0,25;wt%;TITR;0,47;wt%;TITR;0,25;wt%;TITR;0,47;wt%;TITR;;;
GROSCAMP-W-241811;;GROSSMAN-CAMP;GROSSMAN, 1991;36,1156;-78,7722;0,001;;;CONTINENTAL_RIFT;;;;"AAS; COL; ES; ICP; INAA; TITR; Unknown";WHOLE ROCK;IGNEOUS:VOLCANIC:MAFIC;DIABASE;;49,6;wt%;COL;0,51;wt%;COL;16,5;wt%;COL;;;;2,66;wt%;Unknown;;;;6,59;wt%;TITR;;;;;;;0,16;wt%;AAS;9,98;wt%;AAS;12;wt%;Unknown;;;;2,08;wt%;Unknown;0,32;wt%;AAS;0,08;wt%;COL;;;;;;;;;;0,34;wt%;TITR;0,37;wt%;TITR;;;;;;;;;;208;ppm;Unknown;51;ppm;Unknown;80;ppm;Unknown;;;;88;ppm;Unknown;;;;;;;0,04;ppm;INAA;;;;;;;;;;;;;;;;;;;;;;;;;;;;;;;;;;;;;;;;;;;;;;;;;;;;;;;;;;;;;;;;;;;;;;;;;;;;;;;;;;;;;;;;;;;;;;;;;;;;;;;;;;;;;;;;;;;;;;;;;4,7;ppm;INAA;11;ppm;INAA;;;;6,6;ppm;INAA;1,77;ppm;INAA;0,58;ppm;INAA;;;;0,41;ppm;INAA;;;;;;;;;;;;;2,3;ppm;INAA;0,31;ppm;INAA;0,06;ppm;TITR;0,01;ppm;INAA;;;;;;;;;;;;;;;;;;;;;;;;;;;;;;;7,4;ppm;ES;89;ppm;Unknown;;;;;;;;;;;;;51;ppm;Unknown;570;ppm;Unknown;;;;80;ppm;Unknown;;;;;;;1,2;ppm;INAA;;;;;;;;;;;;;;;;;;;;;;2;ppm;ICP;208;ppm;Unknown;;;;;;;;;;9,1;ppm;Unknown;8,2;ppm;Unknown;8;ppm;Unknown;;;;;;;;;;0,04;ppm;INAA;;;;40;ppm;INAA;;;;143;ppm;Unknown;0,16;ppm;INAA;0,52;ppm;INAA;;;;;;;;;;;;;;;;19;ppm;Unknown;88;ppm;Unknown;55;ppm;Unknown;;;;;;;;;;;;;;;;;;;;;;;;;;;;;;;;;;0,34;wt%;TITR;0,37;wt%;TITR;0,34;wt%;TITR;0,37;wt%;TITR;;;
GROSCAMP-W-241812;;GROSSMAN-CAMP;GROSSMAN, 1991;36,1156;-78,7722;0,001;;;CONTINENTAL_RIFT;;;;"AAS; COL; ES; ICP; ICPMS; INAA; TITR; Unknown";WHOLE ROCK;IGNEOUS:VOLCANIC:MAFIC;DIABASE;;49,4;wt%;COL;0,49;wt%;COL;16,4;wt%;COL;;;;2,59;wt%;Unknown;;;;6,68;wt%;TITR;;;;;;;0,16;wt%;AAS;9,83;wt%;AAS;11,9;wt%;Unknown;;;;2,02;wt%;Unknown;0,33;wt%;AAS;0,08;wt%;COL;;;;;;;;;;0,31;wt%;TITR;0,47;wt%;TITR;;;;;;;;;;207;ppm;Unknown;52;ppm;Unknown;81;ppm;Unknown;;;;95;ppm;Unknown;;;;;;;;;;;;;;;;;;;;;;;;;;;;;;;;;;;;;;;;;;;;;;;;;;;;;;;;;;;;;;;;;;;;;;;;;;;;;;;;;;;;;;;;;;;;;;;;;;;;;;;;;;;;;;;;;;;;;;;;;;;;;;;;;;4,7;ppm;INAA;11;ppm;INAA;;;;4,6;ppm;INAA;1,78;ppm;INAA;0,6;ppm;INAA;;;;0,41;ppm;INAA;;;;;;;;;;;;;2,2;ppm;INAA;0,34;ppm;INAA;0,06;ppm;TITR;0,01;ppm;INAA;;;;;;;;;;;;;;;;;;;;;;;;;;;;;;;4;ppm;ES;90;ppm;Unknown;;;;;;;;;;;;;52;ppm;Unknown;540;ppm;Unknown;;;;81;ppm;Unknown;;;;;;;1,1;ppm;INAA;;;;;;;;;;;;;;;;;;;;;;1,8;ppm;ICP;207;ppm;Unknown;;;;;;;;;;12;ppm;Unknown;8,4;ppm;Unknown;4;ppm;Unknown;;;;;;;2,8;ppm;ICPMS;;;;;;;39;ppm;INAA;;;;131;ppm;Unknown;0,46;ppm;INAA;0,59;ppm;INAA;;;;;;;;;;;;;;;;23;ppm;Unknown;95;ppm;Unknown;57;ppm;Unknown;;;;;;;;;;;;;;;;;;;;;;;;;;;;;;;;;;0,31;wt%;TITR;0,47;wt%;TITR;0,31;wt%;TITR;0,47;wt%;TITR;;;
GROSCAMP-W-241813;;GROSSMAN-CAMP;GROSSMAN, 1991;36,1156;-78,7722;0,001;;;CONTINENTAL_RIFT;;;;"AAS; COL; ES; ICP; ICPMS; INAA; TITR; Unknown";WHOLE ROCK;IGNEOUS:VOLCANIC:MAFIC;DIABASE;;49,6;wt%;COL;0,54;wt%;COL;16,6;wt%;COL;;;;2,49;wt%;Unknown;;;;6,91;wt%;TITR;;;;;;;0,17;wt%;AAS;9,41;wt%;AAS;11,7;wt%;Unknown;;;;2,12;wt%;Unknown;0,34;wt%;AAS;0,09;wt%;COL;;;;;;;;;;0,27;wt%;TITR;0,5;wt%;TITR;;;;;;;;;;195;ppm;Unknown;52;ppm;Unknown;86;ppm;Unknown;;;;98;ppm;Unknown;;;;;;;0,05;ppm;INAA;;;;;;;;;;;;;;;;;;;;;;;;;;;;;;;;;;;;;;;;;;;;;;;;;;;;;;;;;;;;;;;;;;;;;;;;;;;;;;;;;;;;;;;;;;;;;;;;;;;;;;;;;;;;;;;;;;;;;;;;;5,1;ppm;INAA;11;ppm;INAA;;;;7,3;ppm;INAA;1,88;ppm;INAA;0,6;ppm;INAA;;;;0,46;ppm;INAA;;;;;;;;;;;;;2,4;ppm;INAA;0,33;ppm;INAA;0,06;ppm;TITR;0,01;ppm;INAA;;;;;;;;;;;;;;;;;;;;;;;;;;;;;;;4;ppm;ES;100;ppm;Unknown;;;;;;;;;;;;;52;ppm;Unknown;440;ppm;Unknown;0,32;ppm;INAA;86;ppm;Unknown;;;;;;;1,3;ppm;INAA;;;;;;;;;;;;;;;;;;;;;;2,1;ppm;ICP;195;ppm;Unknown;;;;;;;;;;9,6;ppm;Unknown;9,1;ppm;Unknown;5;ppm;Unknown;;;;;;;2;ppm;ICPMS;0,05;ppm;INAA;;;;39;ppm;INAA;;;;144;ppm;Unknown;0,18;ppm;INAA;0,61;ppm;INAA;;;;;;;;;;;;;;;;22;ppm;Unknown;98;ppm;Unknown;60;ppm;Unknown;;;;;;;;;;;;;;;;;;;;;;;;;;;;;;;;;;0,27;wt%;TITR;0,5;wt%;TITR;0,27;wt%;TITR;0,5;wt%;TITR;;;