SAMPLE ID;IGSN;EXPEDITION ID;REFERENCES;LATITUDE;LONGITUDE;LOC PREC;MIN ELEVATION;MAX ELEVATION;TECTONIC SETTING;MIN AGE;AGE;MAX AGE;METHOD;ANALYZED MATERIAL;ROCK TYPE;ROCK NAME;MINERAL;SIO2;SIO2 Units;SIO2 Method;TIO2;TIO2 Units;TIO2 Method;AL2O3;AL2O3 Units;AL2O3 Method;CR2O3;CR2O3 Units;CR2O3 Method;FE2O3;FE2O3 Units;FE2O3 Method;FE2O3T;FE2O3T Units;FE2O3T Method;FEO;FEO Units;FEO Method;FEOT;FEOT Units;FEOT Method;NIO;NIO Units;NIO Method;MNO;MNO Units;MNO Method;MGO;MGO Units;MGO Method;CAO;CAO Units;CAO Method;SRO;SRO Units;SRO Method;NA2O;NA2O Units;NA2O Method;K2O;K2O Units;K2O Method;P2O5;P2O5 Units;P2O5 Method;BAO;BAO Units;BAO Method;LOI;LOI Units;LOI Method;H2O;H2O Units;H2O Method;H2O_M;H2O_M Units;H2O_M Method;H2O_P;H2O_P Units;H2O_P Method;SO3;SO3 Units;SO3 Method;COO;COO Units;COO Method;MN;MN Units;MN Method;NI;NI Units;NI Method;CO;CO Units;CO Method;CU;CU Units;CU Method;CD;CD Units;CD Method;ZN;ZN Units;ZN Method;AS;AS Units;AS Method;AG;AG Units;AG Method;S;S Units;S Method;ZRO2;ZRO2 Units;ZRO2 Method;AL;AL Units;AL Method;CA;CA Units;CA Method;SR87_SR86;SR87_SR86 Units;SR87_SR86 Method;SR87_SR86_INI;SR87_SR86_INI Units;SR87_SR86_INI Method;RB87_SR86;RB87_SR86 Units;RB87_SR86 Method;ND143_ND144;ND143_ND144 Units;ND143_ND144 Method;ND143_ND144_INI;ND143_ND144_INI Units;ND143_ND144_INI Method;SM147_ND144;SM147_ND144 Units;SM147_ND144 Method;E_ND;E_ND Units;E_ND Method;E_ND_INI;E_ND_INI Units;E_ND_INI Method;PB204_PB206;PB204_PB206 Units;PB204_PB206 Method;PB206_PB204;PB206_PB204 Units;PB206_PB204 Method;PB206_PB204_INI;PB206_PB204_INI Units;PB206_PB204_INI Method;PB207_PB204;PB207_PB204 Units;PB207_PB204 Method;PB207_PB204_INI;PB207_PB204_INI Units;PB207_PB204_INI Method;PB207_PB206;PB207_PB206 Units;PB207_PB206 Method;PB208_PB204;PB208_PB204 Units;PB208_PB204 Method;PB208_PB204_INI;PB208_PB204_INI Units;PB208_PB204_INI Method;PB208_PB206;PB208_PB206 Units;PB208_PB206 Method;HF176_HF177;HF176_HF177 Units;HF176_HF177 Method;RE187_OS188;RE187_OS188 Units;RE187_OS188 Method;OS187_OS188;OS187_OS188 Units;OS187_OS188 Method;OS187_OS188_INI;OS187_OS188_INI Units;OS187_OS188_INI Method;G_OS;G_OS Units;G_OS Method;G_OS_INI;G_OS_INI Units;G_OS_INI Method;ND143_ND144_INI;ND143_ND144_INI Units;ND143_ND144_INI Method;PB206_PB204_INI;PB206_PB204_INI Units;PB206_PB204_INI Method;PB207_PB204_INI;PB207_PB204_INI Units;PB207_PB204_INI Method;PB208_PB204_INI;PB208_PB204_INI Units;PB208_PB204_INI Method;SR87_SR86_INI;SR87_SR86_INI Units;SR87_SR86_INI Method;HE;HE Units;HE Method;HE3;HE3 Units;HE3 Method;HE3_HE4_R_RA;HE3_HE4_R_RA Units;HE3_HE4_R_RA Method;AR36;AR36 Units;AR36 Method;AR40;AR40 Units;AR40 Method;AR40_AR36;AR40_AR36 Units;AR40_AR36 Method;NE20;NE20 Units;NE20 Method;NE20_NE22;NE20_NE22 Units;NE20_NE22 Method;NE21_NE22;NE21_NE22 Units;NE21_NE22 Method;LA;LA Units;LA Method;CE;CE Units;CE Method;PR;PR Units;PR Method;ND;ND Units;ND Method;SM;SM Units;SM Method;EU;EU Units;EU Method;GD;GD Units;GD Method;TB;TB Units;TB Method;DY;DY Units;DY Method;HO;HO Units;HO Method;ER;ER Units;ER Method;TM;TM Units;TM Method;YB;YB Units;YB Method;LU;LU Units;LU Method;CO2;CO2 Units;CO2 Method;F;F Units;F Method;CL;CL Units;CL Method;U238_PB204;U238_PB204 Units;U238_PB204 Method;TH230_TH232;TH230_TH232 Units;TH230_TH232 Method;RA226_ACTIVITY;RA226_ACTIVITY Units;RA226_ACTIVITY Method;PB210_RA226;PB210_RA226 Units;PB210_RA226 Method;PB210_ACTIVITY;PB210_ACTIVITY Units;PB210_ACTIVITY Method;AG;AG Units;AG Method;AL;AL Units;AL Method;AS;AS Units;AS Method;AU;AU Units;AU Method;B;B Units;B Method;BA;BA Units;BA Method;BE;BE Units;BE Method;BI;BI Units;BI Method;CA;CA Units;CA Method;CD;CD Units;CD Method;CO;CO Units;CO Method;CR;CR Units;CR Method;CS;CS Units;CS Method;CU;CU Units;CU Method;GA;GA Units;GA Method;GER;GER Units;GER Method;HF;HF Units;HF Method;INDIUM;INDIUM Units;INDIUM Method;IR;IR Units;IR Method;K;K Units;K Method;LI;LI Units;LI Method;MN;MN Units;MN Method;MO;MO Units;MO Method;NA;NA Units;NA Method;NB;NB Units;NB Method;NI;NI Units;NI Method;OS;OS Units;OS Method;P;P Units;P Method;PB;PB Units;PB Method;PD;PD Units;PD Method;PT;PT Units;PT Method;RB;RB Units;RB Method;RE;RE Units;RE Method;RH;RH Units;RH Method;RU;RU Units;RU Method;S;S Units;S Method;SB;SB Units;SB Method;SC;SC Units;SC Method;SN;SN Units;SN Method;SR;SR Units;SR Method;TA;TA Units;TA Method;TH;TH Units;TH Method;TI;TI Units;TI Method;TL;TL Units;TL Method;U;U Units;U Method;V;V Units;V Method;W;W Units;W Method;Y;Y Units;Y Method;ZN;ZN Units;ZN Method;ZR;ZR Units;ZR Method;DELTA_O18;DELTA_O18 Units;DELTA_O18 Method;DELTA_C13;DELTA_C13 Units;DELTA_C13 Method;DELTA_MO98;DELTA_MO98 Units;DELTA_MO98 Method;DELTA_ZN66;DELTA_ZN66 Units;DELTA_ZN66 Method;DELTA_ZN68;DELTA_ZN68 Units;DELTA_ZN68 Method;OS188;OS188 Units;OS188 Method;FE3P_FET;FE3P_FET Units;FE3P_FET Method;TI;TI Units;TI Method;AS;AS Units;AS Method;AS;AS Units;AS Method;GER;GER Units;GER Method;H2O_M;H2O_M Units;H2O_M Method;H2O_P;H2O_P Units;H2O_P Method;H2O_M;H2O_M Units;H2O_M Method;H2O_P;H2O_P Units;H2O_P Method;INDIUM;INDIUM Units;INDIUM Method
GROSCAMP-W-241964;;GROSSMAN-CAMP;GROSSMAN, 1991;40,2022;-76,8667;0,001;;;CONTINENTAL_RIFT;;;;"AAS; COL; ICP; INAA; TITR; Unknown";WHOLE ROCK;IGNEOUS:VOLCANIC:MAFIC;DIABASE;;42,8;wt%;COL;1,11;wt%;COL;13;wt%;COL;;;;3,1;wt%;Unknown;;;;4,2;wt%;TITR;;;;;;;0,21;wt%;AAS;4,67;wt%;AAS;15,6;wt%;Unknown;;;;2,61;wt%;Unknown;2,26;wt%;AAS;0,09;wt%;COL;;;;;;;;;;1,7;wt%;TITR;1,7;wt%;TITR;;;;;;;;;;75;ppm;Unknown;28,3;ppm;Unknown;71;ppm;Unknown;;;;47;ppm;Unknown;3;ppm;INAA;;;;0,03;ppm;INAA;;;;;;;;;;;;;;;;;;;;;;;;;;;;;;;;;;;;;;;;;;;;;;;;;;;;;;;;;;;;;;;;;;;;;;;;;;;;;;;;;;;;;;;;;;;;;;;;;;;;;;;;;;;;;;;;;;;;;;;;;16,4;ppm;INAA;32;ppm;INAA;;;;14;ppm;INAA;4;ppm;INAA;1,15;ppm;INAA;;;;0,73;ppm;INAA;;;;;;;;;;;;;2,4;ppm;INAA;0,32;ppm;INAA;6,3;ppm;TITR;0,03;ppm;INAA;0,05;ppm;INAA;;;;;;;;;;;;;;;;;;;;;;3;ppm;INAA;;;;;;;690;ppm;Unknown;;;;;;;;;;;;;28,3;ppm;Unknown;229;ppm;Unknown;1;ppm;INAA;71;ppm;Unknown;;;;;;;2,69;ppm;INAA;;;;;;;;;;;;;;;;;;;;;;7,3;ppm;ICP;75;ppm;Unknown;;;;;;;;;;4,5;ppm;Unknown;6,5;ppm;Unknown;68;ppm;Unknown;;;;;;;;;;0,03;ppm;INAA;0,27;ppm;INAA;36;ppm;INAA;;;;242;ppm;Unknown;0,58;ppm;INAA;2,2;ppm;INAA;;;;;;;0,7;ppm;INAA;;;;;;;23;ppm;Unknown;47;ppm;Unknown;95;ppm;Unknown;;;;;;;;;;;;;;;;;;;;;;;;;3;ppm;INAA;3;ppm;INAA;;;;1,7;wt%;TITR;1,7;wt%;TITR;1,7;wt%;TITR;1,7;wt%;TITR;;;
GROSCAMP-W-241965;;GROSSMAN-CAMP;GROSSMAN, 1991;40,2022;-76,8667;0,001;;;CONTINENTAL_RIFT;;;;"AAS; COL; ICP; INAA; TITR; Unknown";WHOLE ROCK;IGNEOUS:VOLCANIC:MAFIC;DIABASE;;52,5;wt%;COL;1,17;wt%;COL;14,3;wt%;COL;;;;2,79;wt%;Unknown;;;;8;wt%;TITR;;;;;;;0,19;wt%;AAS;7,21;wt%;AAS;10,5;wt%;Unknown;;;;2,44;wt%;Unknown;0,78;wt%;AAS;0,16;wt%;COL;;;;;;;;;;0,32;wt%;TITR;0,56;wt%;TITR;;;;;;;;;;69;ppm;Unknown;46;ppm;Unknown;97;ppm;Unknown;;;;83;ppm;Unknown;;;;;;;0,03;ppm;INAA;;;;;;;;;;;;;;;;;;;;;;;;;;;;;;;;;;;;;;;;;;;;;;;;;;;;;;;;;;;;;;;;;;;;;;;;;;;;;;;;;;;;;;;;;;;;;;;;;;;;;;;;;;;;;;;;;;;;;;;;;11,8;ppm;INAA;25,7;ppm;INAA;;;;14;ppm;INAA;3,6;ppm;INAA;1,15;ppm;INAA;;;;0,67;ppm;INAA;;;;;;;;;;;;;2,2;ppm;INAA;0,32;ppm;INAA;0,02;ppm;TITR;0,02;ppm;INAA;0,05;ppm;INAA;;;;;;;;;;;;;;;;;;;;;;;;;;;;;;;168;ppm;Unknown;;;;;;;;;;;;;46;ppm;Unknown;256;ppm;Unknown;1,1;ppm;INAA;97;ppm;Unknown;;;;;;;2,7;ppm;INAA;;;;;;;;;;;;;;;;;;;;;;8,3;ppm;ICP;69;ppm;Unknown;;;;;;;;;;7,1;ppm;Unknown;8,3;ppm;Unknown;29;ppm;Unknown;;;;;;;;;;0,03;ppm;INAA;;;;37;ppm;INAA;;;;195;ppm;Unknown;0,58;ppm;INAA;2,4;ppm;INAA;;;;;;;0,37;ppm;INAA;;;;;;;24;ppm;Unknown;83;ppm;Unknown;103;ppm;Unknown;;;;;;;;;;;;;;;;;;;;;;;;;;;;;;;;;;0,32;wt%;TITR;0,56;wt%;TITR;0,32;wt%;TITR;0,56;wt%;TITR;;;
GROSCAMP-W-241966;;GROSSMAN-CAMP;GROSSMAN, 1991;40,2022;-76,8667;0,001;;;CONTINENTAL_RIFT;;;;"AAS; COL; ES; ICP; INAA; TITR; Unknown";WHOLE ROCK;IGNEOUS:VOLCANIC:MAFIC;DIABASE;;52,7;wt%;COL;1,21;wt%;COL;14;wt%;COL;;;;2,83;wt%;Unknown;;;;8,4;wt%;TITR;;;;;;;0,18;wt%;AAS;7,03;wt%;AAS;10,7;wt%;Unknown;;;;2,25;wt%;Unknown;0,77;wt%;AAS;0,16;wt%;COL;;;;;;;;;;0,21;wt%;TITR;0,57;wt%;TITR;;;;;;;;;;76;ppm;Unknown;47;ppm;Unknown;106;ppm;Unknown;;;;91;ppm;Unknown;;;;;;;0,03;ppm;INAA;;;;;;;;;;;;;;;;;;;;;;;;;;;;;;;;;;;;;;;;;;;;;;;;;;;;;;;;;;;;;;;;;;;;;;;;;;;;;;;;;;;;;;;;;;;;;;;;;;;;;;;;;;;;;;;;;;;;;;;;;12,4;ppm;INAA;26,2;ppm;INAA;;;;14;ppm;INAA;3,7;ppm;INAA;1,14;ppm;INAA;;;;0,73;ppm;INAA;;;;;;;;;;;;;2,4;ppm;INAA;0,32;ppm;INAA;0,01;ppm;TITR;0,05;ppm;INAA;0,15;ppm;INAA;;;;;;;;;;;;;;;;;;;;;;;;;6,6;ppm;INAA;22,5;ppm;ES;180;ppm;Unknown;;;;;;;;;;;;;47;ppm;Unknown;237;ppm;Unknown;0,77;ppm;INAA;106;ppm;Unknown;;;;;;;2,5;ppm;INAA;;;;;;;;;;;;;;;;;;;;;;8,8;ppm;ICP;76;ppm;Unknown;;;;;;;;;;6,9;ppm;Unknown;8,1;ppm;Unknown;20;ppm;Unknown;;;;;;;;;;0,03;ppm;INAA;;;;38;ppm;INAA;;;;192;ppm;Unknown;0,57;ppm;INAA;2,4;ppm;INAA;;;;;;;0,37;ppm;INAA;;;;;;;22;ppm;Unknown;91;ppm;Unknown;106;ppm;Unknown;;;;;;;;;;;;;;;;;;;;;;;;;;;;;;;;;;0,21;wt%;TITR;0,57;wt%;TITR;0,21;wt%;TITR;0,57;wt%;TITR;;;
GROSCAMP-W-241967;;GROSSMAN-CAMP;GROSSMAN, 1991;40,2022;-76,8667;0,001;;;CONTINENTAL_RIFT;;;;"AAS; COL; ES; ICP; INAA; TITR; Unknown";WHOLE ROCK;IGNEOUS:VOLCANIC:MAFIC;DIABASE;;53;wt%;COL;1,28;wt%;COL;14,1;wt%;COL;;;;3,29;wt%;Unknown;;;;7,6;wt%;TITR;;;;;;;0,17;wt%;AAS;6,86;wt%;AAS;10,7;wt%;Unknown;;;;2,32;wt%;Unknown;0,87;wt%;AAS;0,17;wt%;COL;;;;;;;;;;0,24;wt%;TITR;0,6;wt%;TITR;;;;;;;;;;68;ppm;Unknown;44;ppm;Unknown;86;ppm;Unknown;;;;68;ppm;Unknown;3,1;ppm;INAA;;;;0,03;ppm;INAA;;;;;;;;;;;;;;;;;;;;;;;;;;;;;;;;;;;;;;;;;;;;;;;;;;;;;;;;;;;;;;;;;;;;;;;;;;;;;;;;;;;;;;;;;;;;;;;;;;;;;;;;;;;;;;;;;;;;;;;;;13,4;ppm;INAA;28,4;ppm;INAA;;;;14;ppm;INAA;3,9;ppm;INAA;1,17;ppm;INAA;;;;0,75;ppm;INAA;;;;;;;;;;;;;2,4;ppm;INAA;0,34;ppm;INAA;0,06;ppm;TITR;0,02;ppm;INAA;0,1;ppm;INAA;;;;;;;;;;;;;;;;;;;;;;3,1;ppm;INAA;;;;31;ppm;ES;199;ppm;Unknown;;;;;;;;;;;;;44;ppm;Unknown;214;ppm;Unknown;1;ppm;INAA;86;ppm;Unknown;;;;;;;3;ppm;INAA;;;;;;;;;;;;;;;;;;;;;;8,6;ppm;ICP;68;ppm;Unknown;;;;;;;;;;5,5;ppm;Unknown;5,9;ppm;Unknown;29;ppm;Unknown;;;;;;;;;;0,03;ppm;INAA;0,23;ppm;INAA;38;ppm;INAA;;;;189;ppm;Unknown;0,59;ppm;INAA;2,7;ppm;INAA;;;;;;;0,62;ppm;INAA;;;;;;;25;ppm;Unknown;68;ppm;Unknown;98;ppm;Unknown;;;;;;;;;;;;;;;;;;;;;;;;;3,1;ppm;INAA;3,1;ppm;INAA;;;;0,24;wt%;TITR;0,6;wt%;TITR;0,24;wt%;TITR;0,6;wt%;TITR;;;
GROSCAMP-W-241968;;GROSSMAN-CAMP;GROSSMAN, 1991;40,2022;-76,8667;0,001;;;CONTINENTAL_RIFT;;;;"AAS; COL; ICP; INAA; TITR; Unknown";WHOLE ROCK;IGNEOUS:VOLCANIC:MAFIC;DIABASE;;53,2;wt%;COL;1,29;wt%;COL;13,9;wt%;COL;;;;2,97;wt%;Unknown;;;;8,3;wt%;TITR;;;;;;;0,19;wt%;AAS;6,79;wt%;AAS;10,2;wt%;Unknown;;;;2,24;wt%;Unknown;0,96;wt%;AAS;0,16;wt%;COL;;;;;;;;;;0,26;wt%;TITR;0,74;wt%;TITR;;;;;;;;;;67;ppm;Unknown;46;ppm;Unknown;110;ppm;Unknown;;;;108;ppm;Unknown;;;;;;;0,06;ppm;INAA;;;;;;;;;;;;;;;;;;;;;;;;;;;;;;;;;;;;;;;;;;;;;;;;;;;;;;;;;;;;;;;;;;;;;;;;;;;;;;;;;;;;;;;;;;;;;;;;;;;;;;;;;;;;;;;;;;;;;;;;;12,6;ppm;INAA;26,5;ppm;INAA;;;;14;ppm;INAA;3,8;ppm;INAA;1,2;ppm;INAA;;;;0,81;ppm;INAA;;;;;;;;;;;;;2,5;ppm;INAA;0,35;ppm;INAA;0,02;ppm;TITR;0,02;ppm;INAA;0,06;ppm;INAA;;;;;;;;;;;;;;;;;;;;;;;;;;;;;;;191;ppm;Unknown;;;;;;;;;;;;;46;ppm;Unknown;221;ppm;Unknown;1,1;ppm;INAA;110;ppm;Unknown;;;;;;;2,8;ppm;INAA;;;;;;;;;;;;;;;;;;;;;;9,4;ppm;ICP;67;ppm;Unknown;;;;;;;;;;5;ppm;Unknown;5,6;ppm;Unknown;23;ppm;Unknown;;;;;;;;;;0,06;ppm;INAA;0,17;ppm;INAA;37;ppm;INAA;;;;195;ppm;Unknown;0,62;ppm;INAA;2,8;ppm;INAA;;;;;;;0,73;ppm;INAA;;;;;;;25;ppm;Unknown;108;ppm;Unknown;120;ppm;Unknown;;;;;;;;;;;;;;;;;;;;;;;;;;;;;;;;;;0,26;wt%;TITR;0,74;wt%;TITR;0,26;wt%;TITR;0,74;wt%;TITR;;;
GROSCAMP-W-241969;;GROSSMAN-CAMP;GROSSMAN, 1991;40,2022;-76,8667;0,001;;;CONTINENTAL_RIFT;;;;"AAS; COL; ES; ICP; INAA; TITR; Unknown";WHOLE ROCK;IGNEOUS:VOLCANIC:MAFIC;DIABASE;;52,3;wt%;COL;1,17;wt%;COL;13,7;wt%;COL;;;;2,49;wt%;Unknown;;;;8,4;wt%;TITR;;;;;;;0,18;wt%;AAS;7,93;wt%;AAS;10,8;wt%;Unknown;;;;2,08;wt%;Unknown;0,69;wt%;AAS;0,14;wt%;COL;;;;;;;;;;0,25;wt%;TITR;0,65;wt%;TITR;;;;;;;;;;87;ppm;Unknown;47;ppm;Unknown;97;ppm;Unknown;;;;74;ppm;Unknown;;;;;;;0,04;ppm;INAA;;;;;;;;;;;;;;;;;;;;;;;;;;;;;;;;;;;;;;;;;;;;;;;;;;;;;;;;;;;;;;;;;;;;;;;;;;;;;;;;;;;;;;;;;;;;;;;;;;;;;;;;;;;;;;;;;;;;;;;;;11,3;ppm;INAA;25,2;ppm;INAA;;;;12;ppm;INAA;3,4;ppm;INAA;1,07;ppm;INAA;;;;0,67;ppm;INAA;;;;;;;;;;;;;2;ppm;INAA;0,31;ppm;INAA;0,03;ppm;TITR;0,02;ppm;INAA;0,02;ppm;INAA;;;;;;;;;;;;;;;;;;;;;;;;;;;;28,4;ppm;ES;159;ppm;Unknown;;;;;;;;;;;;;47;ppm;Unknown;278;ppm;Unknown;1,2;ppm;INAA;97;ppm;Unknown;;;;;;;2,6;ppm;INAA;;;;;;;;;;;;;;;;;;;;;;7,9;ppm;ICP;87;ppm;Unknown;;;;;;;;;;5,8;ppm;Unknown;6;ppm;Unknown;29;ppm;Unknown;;;;;;;;;;0,04;ppm;INAA;;;;36;ppm;INAA;;;;177;ppm;Unknown;0,55;ppm;INAA;2,3;ppm;INAA;;;;;;;;;;;;;;;;24;ppm;Unknown;74;ppm;Unknown;103;ppm;Unknown;;;;;;;;;;;;;;;;;;;;;;;;;;;;;;;;;;0,25;wt%;TITR;0,65;wt%;TITR;0,25;wt%;TITR;0,65;wt%;TITR;;;
GROSCAMP-W-241970;;GROSSMAN-CAMP;GROSSMAN, 1991;40,2022;-76,8667;0,001;;;CONTINENTAL_RIFT;;;;"AAS; COL; ES; ICP; INAA; TITR; Unknown";WHOLE ROCK;IGNEOUS:VOLCANIC:MAFIC;DIABASE;;52,3;wt%;COL;1,14;wt%;COL;14;wt%;COL;;;;2,3;wt%;Unknown;;;;8,4;wt%;TITR;;;;;;;0,18;wt%;AAS;7,75;wt%;AAS;10,7;wt%;Unknown;;;;1,99;wt%;Unknown;0,7;wt%;AAS;0,14;wt%;COL;;;;;;;;;;0,24;wt%;TITR;0,55;wt%;TITR;;;;;;;;;;97;ppm;Unknown;47;ppm;Unknown;114;ppm;Unknown;;;;91;ppm;Unknown;;;;;;;0,03;ppm;INAA;;;;;;;;;;;;;;;;;;;;;;;;;;;;;;;;;;;;;;;;;;;;;;;;;;;;;;;;;;;;;;;;;;;;;;;;;;;;;;;;;;;;;;;;;;;;;;;;;;;;;;;;;;;;;;;;;;;;;;;;;10,9;ppm;INAA;24,3;ppm;INAA;;;;13;ppm;INAA;3,4;ppm;INAA;1;ppm;INAA;;;;0,61;ppm;INAA;;;;;;;;;;;;;2;ppm;INAA;0,31;ppm;INAA;0,03;ppm;TITR;0,02;ppm;INAA;0,06;ppm;INAA;;;;;;;;;;;;;;;;;;;;;;;;;;;;24,7;ppm;ES;168;ppm;Unknown;;;;;;;;;;;;;47;ppm;Unknown;272;ppm;Unknown;1,4;ppm;INAA;114;ppm;Unknown;;;;;;;2,8;ppm;INAA;;;;;;;;;;;;;;;;;;;;;;7,9;ppm;ICP;97;ppm;Unknown;;;;;;;;;;5,2;ppm;Unknown;5,1;ppm;Unknown;27;ppm;Unknown;;;;;;;;;;0,03;ppm;INAA;;;;36;ppm;INAA;;;;176;ppm;Unknown;0,5;ppm;INAA;2,4;ppm;INAA;;;;;;;0,64;ppm;INAA;;;;;;;30;ppm;Unknown;91;ppm;Unknown;103;ppm;Unknown;;;;;;;;;;;;;;;;;;;;;;;;;;;;;;;;;;0,24;wt%;TITR;0,55;wt%;TITR;0,24;wt%;TITR;0,55;wt%;TITR;;;
GROSCAMP-W-241971;;GROSSMAN-CAMP;GROSSMAN, 1991;40,2022;-76,8667;0,001;;;CONTINENTAL_RIFT;;;;"AAS; COL; ES; ICP; INAA; TITR; Unknown";WHOLE ROCK;IGNEOUS:VOLCANIC:MAFIC;DIABASE;;52,3;wt%;COL;1,13;wt%;COL;13,8;wt%;COL;;;;2,79;wt%;Unknown;;;;8;wt%;TITR;;;;;;;0,18;wt%;AAS;7,54;wt%;AAS;10,9;wt%;Unknown;;;;2,14;wt%;Unknown;0,59;wt%;AAS;0,14;wt%;COL;;;;;;;;;;0,36;wt%;TITR;0,64;wt%;TITR;;;;;;;;;;88;ppm;Unknown;47;ppm;Unknown;104;ppm;Unknown;;;;76;ppm;Unknown;2,8;ppm;INAA;;;;0,04;ppm;INAA;;;;;;;;;;;;;;;;;;;;;;;;;;;;;;;;;;;;;;;;;;;;;;;;;;;;;;;;;;;;;;;;;;;;;;;;;;;;;;;;;;;;;;;;;;;;;;;;;;;;;;;;;;;;;;;;;;;;;;;;;11,3;ppm;INAA;23,8;ppm;INAA;;;;13;ppm;INAA;3,5;ppm;INAA;1,07;ppm;INAA;;;;0,65;ppm;INAA;;;;;;;;;;;;;2,2;ppm;INAA;0,29;ppm;INAA;0,05;ppm;TITR;0,02;ppm;INAA;0,03;ppm;INAA;;;;;;;;;;;;;;;;;;;;;;2,8;ppm;INAA;;;;23,6;ppm;ES;153;ppm;Unknown;;;;;;;;;;;;;47;ppm;Unknown;287;ppm;Unknown;1;ppm;INAA;104;ppm;Unknown;;;;;;;2,5;ppm;INAA;;;;;;;;;;;;;;;;;;;;;;7,7;ppm;ICP;88;ppm;Unknown;;;;;;;;;;7,2;ppm;Unknown;7,2;ppm;Unknown;15;ppm;Unknown;;;;;;;;;;0,04;ppm;INAA;;;;37;ppm;INAA;;;;168;ppm;Unknown;0,66;ppm;INAA;2,2;ppm;INAA;;;;;;;0,32;ppm;INAA;;;;;;;23;ppm;Unknown;76;ppm;Unknown;96;ppm;Unknown;;;;;;;;;;;;;;;;;;;;;;;;;2,8;ppm;INAA;2,8;ppm;INAA;;;;0,36;wt%;TITR;0,64;wt%;TITR;0,36;wt%;TITR;0,64;wt%;TITR;;;
GROSCAMP-W-241972;;GROSSMAN-CAMP;GROSSMAN, 1991;40,2022;-76,8667;0,001;;;CONTINENTAL_RIFT;;;;"AAS; COL; ICP; INAA; TITR; Unknown";WHOLE ROCK;IGNEOUS:VOLCANIC:MAFIC;DIABASE;;51,5;wt%;COL;1,1;wt%;COL;13,3;wt%;COL;;;;3,97;wt%;Unknown;;;;5,9;wt%;TITR;;;;;;;0,15;wt%;AAS;7,79;wt%;AAS;10,7;wt%;Unknown;;;;2,26;wt%;Unknown;0,54;wt%;AAS;0,13;wt%;COL;;;;;;;;;;1,5;wt%;TITR;1,3;wt%;TITR;;;;;;;;;;86;ppm;Unknown;42;ppm;Unknown;87;ppm;Unknown;;;;127;ppm;Unknown;8,8;ppm;INAA;;;;0,05;ppm;INAA;;;;;;;;;;;;;;;;;;;;;;;;;;;;;;;;;;;;;;;;;;;;;;;;;;;;;;;;;;;;;;;;;;;;;;;;;;;;;;;;;;;;;;;;;;;;;;;;;;;;;;;;;;;;;;;;;;;;;;;;;11,7;ppm;INAA;25,2;ppm;INAA;;;;12;ppm;INAA;3,5;ppm;INAA;1;ppm;INAA;;;;0,62;ppm;INAA;;;;;;;;;;;;;2,2;ppm;INAA;0,3;ppm;INAA;0,44;ppm;TITR;0,02;ppm;INAA;0,02;ppm;INAA;;;;;;;;;;;;;;;;;;;;;;8,8;ppm;INAA;;;;;;;134;ppm;Unknown;;;;;;;;;;;;;42;ppm;Unknown;257;ppm;Unknown;1,1;ppm;INAA;87;ppm;Unknown;;;;;;;2,6;ppm;INAA;;;;;;;;;;;;;;;;;;;;;;7,5;ppm;ICP;86;ppm;Unknown;;;;;;;;;;8,3;ppm;Unknown;11;ppm;Unknown;15;ppm;Unknown;;;;;;;;;;0,05;ppm;INAA;0,28;ppm;INAA;35;ppm;INAA;;;;177;ppm;Unknown;0,53;ppm;INAA;2,3;ppm;INAA;;;;;;;0,63;ppm;INAA;;;;;;;21;ppm;Unknown;127;ppm;Unknown;106;ppm;Unknown;;;;;;;;;;;;;;;;;;;;;;;;;8,8;ppm;INAA;8,8;ppm;INAA;;;;1,5;wt%;TITR;1,3;wt%;TITR;1,5;wt%;TITR;1,3;wt%;TITR;;;
GROSCAMP-W-243027;;GROSSMAN-CAMP;GROSSMAN, 1991;36,0667;-78,8931;0,001;;;CONTINENTAL_RIFT;;;;"AAS; COL; ES; ICP; INAA; TITR; Unknown";WHOLE ROCK;IGNEOUS:VOLCANIC:MAFIC;DIABASE;;53,7;wt%;COL;2,51;wt%;COL;12,5;wt%;COL;;;;4,63;wt%;Unknown;;;;5,7;wt%;TITR;;;;;;;0,18;wt%;AAS;3,8;wt%;AAS;8,39;wt%;Unknown;;;;2,91;wt%;Unknown;3,49;wt%;AAS;0,69;wt%;COL;;;;;;;;;;0,96;wt%;TITR;0,76;wt%;TITR;;;;;;;;;;34;ppm;Unknown;31;ppm;Unknown;51;ppm;Unknown;;;;72;ppm;Unknown;;;;;;;0,01;ppm;INAA;;;;;;;;;;;;;;;;;;;;;;;;;;;;;;;;;;;;;;;;;;;;;;;;;;;;;;;;;;;;;;;;;;;;;;;;;;;;;;;;;;;;;;;;;;;;;;;;;;;;;;;;;;;;;;;;;;;;;;;;;37;ppm;INAA;77;ppm;INAA;;;;43;ppm;INAA;12,4;ppm;INAA;3,1;ppm;INAA;;;;3;ppm;INAA;;;;;;;;;;;;;15,6;ppm;INAA;2,18;ppm;INAA;0,15;ppm;TITR;0,05;ppm;INAA;0,02;ppm;INAA;;;;;;;;;;;;;;;;;;;;;;;;;;;;25,5;ppm;ES;540;ppm;Unknown;;;;;;;;;;;;;31;ppm;Unknown;28;ppm;Unknown;;;;51;ppm;Unknown;;;;;;;9,6;ppm;INAA;;;;;;;;;;;;;;;;;;;;;;17;ppm;ICP;34;ppm;Unknown;;;;;;;;;;;;;;;;40;ppm;Unknown;;;;;;;;;;0,01;ppm;INAA;;;;42;ppm;INAA;;;;110;ppm;Unknown;1,2;ppm;INAA;3;ppm;INAA;;;;;;;0,73;ppm;INAA;;;;;;;157;ppm;Unknown;72;ppm;Unknown;340;ppm;Unknown;;;;;;;;;;;;;;;;;;;;;;;;;;;;;;;;;;0,96;wt%;TITR;0,76;wt%;TITR;0,96;wt%;TITR;0,76;wt%;TITR;;;
GROSCAMP-W-243028;;GROSSMAN-CAMP;GROSSMAN, 1991;36,0667;-78,8931;0,001;;;CONTINENTAL_RIFT;;;;"AAS; COL; ES; ICP; INAA; TITR; Unknown";WHOLE ROCK;IGNEOUS:VOLCANIC:MAFIC;DIABASE;;46,1;wt%;COL;0,41;wt%;COL;16,4;wt%;COL;;;;1,82;wt%;Unknown;;;;8,8;wt%;TITR;;;;;;;0,16;wt%;AAS;13,3;wt%;AAS;10,9;wt%;Unknown;;;;1,66;wt%;Unknown;0,18;wt%;AAS;0,07;wt%;COL;;;;;;;;;;1,2;wt%;TITR;0,26;wt%;TITR;;;;;;;;;;390;ppm;Unknown;77;ppm;Unknown;100;ppm;Unknown;;;;58;ppm;Unknown;;;;;;;0,03;ppm;INAA;;;;;;;;;;;;;;;;;;;;;;;;;;;;;;;;;;;;;;;;;;;;;;;;;;;;;;;;;;;;;;;;;;;;;;;;;;;;;;;;;;;;;;;;;;;;;;;;;;;;;;;;;;;;;;;;;;;;;;;;;3,2;ppm;INAA;7,5;ppm;INAA;;;;3,3;ppm;INAA;1,22;ppm;INAA;0,51;ppm;INAA;;;;0,47;ppm;INAA;;;;;;;;;;;;;1,7;ppm;INAA;0,25;ppm;INAA;0,06;ppm;TITR;0,01;ppm;INAA;0;ppm;INAA;;;;;;;;;;;;;;;;;;;;;;;;;;;;7;ppm;ES;81;ppm;Unknown;;;;;;;;;;;;;77;ppm;Unknown;630;ppm;Unknown;;;;100;ppm;Unknown;;;;;;;0,78;ppm;INAA;;;;;;;;;;;;;;;;;;;;;;1,4;ppm;ICP;390;ppm;Unknown;;;;;;;;;;5;ppm;Unknown;16;ppm;Unknown;4;ppm;Unknown;;;;;;;;;;0,03;ppm;INAA;;;;33;ppm;INAA;;;;133;ppm;Unknown;;;;;;;;;;;;;;;;;;;;;;16;ppm;Unknown;58;ppm;Unknown;40;ppm;Unknown;;;;;;;;;;;;;;;;;;;;;;;;;;;;;;;;;;1,2;wt%;TITR;0,26;wt%;TITR;1,2;wt%;TITR;0,26;wt%;TITR;;;