SAMPLE ID;IGSN;EXPEDITION ID;REFERENCES;LATITUDE;LONGITUDE;LOC PREC;MIN ELEVATION;MAX ELEVATION;TECTONIC SETTING;MIN AGE;AGE;MAX AGE;METHOD;ANALYZED MATERIAL;ROCK TYPE;ROCK NAME;MINERAL;SIO2;SIO2 Units;SIO2 Method;TIO2;TIO2 Units;TIO2 Method;AL2O3;AL2O3 Units;AL2O3 Method;CR2O3;CR2O3 Units;CR2O3 Method;FE2O3;FE2O3 Units;FE2O3 Method;FE2O3T;FE2O3T Units;FE2O3T Method;FEO;FEO Units;FEO Method;FEOT;FEOT Units;FEOT Method;NIO;NIO Units;NIO Method;MNO;MNO Units;MNO Method;MGO;MGO Units;MGO Method;CAO;CAO Units;CAO Method;SRO;SRO Units;SRO Method;NA2O;NA2O Units;NA2O Method;K2O;K2O Units;K2O Method;P2O5;P2O5 Units;P2O5 Method;BAO;BAO Units;BAO Method;LOI;LOI Units;LOI Method;H2O;H2O Units;H2O Method;H2O_M;H2O_M Units;H2O_M Method;H2O_P;H2O_P Units;H2O_P Method;SO3;SO3 Units;SO3 Method;COO;COO Units;COO Method;MN;MN Units;MN Method;NI;NI Units;NI Method;CO;CO Units;CO Method;CU;CU Units;CU Method;CD;CD Units;CD Method;ZN;ZN Units;ZN Method;AS;AS Units;AS Method;AG;AG Units;AG Method;S;S Units;S Method;ZRO2;ZRO2 Units;ZRO2 Method;AL;AL Units;AL Method;CA;CA Units;CA Method;SR87_SR86;SR87_SR86 Units;SR87_SR86 Method;SR87_SR86_INI;SR87_SR86_INI Units;SR87_SR86_INI Method;RB87_SR86;RB87_SR86 Units;RB87_SR86 Method;ND143_ND144;ND143_ND144 Units;ND143_ND144 Method;ND143_ND144_INI;ND143_ND144_INI Units;ND143_ND144_INI Method;SM147_ND144;SM147_ND144 Units;SM147_ND144 Method;E_ND;E_ND Units;E_ND Method;E_ND_INI;E_ND_INI Units;E_ND_INI Method;PB204_PB206;PB204_PB206 Units;PB204_PB206 Method;PB206_PB204;PB206_PB204 Units;PB206_PB204 Method;PB206_PB204_INI;PB206_PB204_INI Units;PB206_PB204_INI Method;PB207_PB204;PB207_PB204 Units;PB207_PB204 Method;PB207_PB204_INI;PB207_PB204_INI Units;PB207_PB204_INI Method;PB207_PB206;PB207_PB206 Units;PB207_PB206 Method;PB208_PB204;PB208_PB204 Units;PB208_PB204 Method;PB208_PB204_INI;PB208_PB204_INI Units;PB208_PB204_INI Method;PB208_PB206;PB208_PB206 Units;PB208_PB206 Method;HF176_HF177;HF176_HF177 Units;HF176_HF177 Method;RE187_OS188;RE187_OS188 Units;RE187_OS188 Method;OS187_OS188;OS187_OS188 Units;OS187_OS188 Method;OS187_OS188_INI;OS187_OS188_INI Units;OS187_OS188_INI Method;G_OS;G_OS Units;G_OS Method;G_OS_INI;G_OS_INI Units;G_OS_INI Method;ND143_ND144_INI;ND143_ND144_INI Units;ND143_ND144_INI Method;PB206_PB204_INI;PB206_PB204_INI Units;PB206_PB204_INI Method;PB207_PB204_INI;PB207_PB204_INI Units;PB207_PB204_INI Method;PB208_PB204_INI;PB208_PB204_INI Units;PB208_PB204_INI Method;SR87_SR86_INI;SR87_SR86_INI Units;SR87_SR86_INI Method;HE;HE Units;HE Method;HE3;HE3 Units;HE3 Method;HE3_HE4_R_RA;HE3_HE4_R_RA Units;HE3_HE4_R_RA Method;AR36;AR36 Units;AR36 Method;AR40;AR40 Units;AR40 Method;AR40_AR36;AR40_AR36 Units;AR40_AR36 Method;NE20;NE20 Units;NE20 Method;NE20_NE22;NE20_NE22 Units;NE20_NE22 Method;NE21_NE22;NE21_NE22 Units;NE21_NE22 Method;LA;LA Units;LA Method;CE;CE Units;CE Method;PR;PR Units;PR Method;ND;ND Units;ND Method;SM;SM Units;SM Method;EU;EU Units;EU Method;GD;GD Units;GD Method;TB;TB Units;TB Method;DY;DY Units;DY Method;HO;HO Units;HO Method;ER;ER Units;ER Method;TM;TM Units;TM Method;YB;YB Units;YB Method;LU;LU Units;LU Method;CO2;CO2 Units;CO2 Method;F;F Units;F Method;CL;CL Units;CL Method;U238_PB204;U238_PB204 Units;U238_PB204 Method;TH230_TH232;TH230_TH232 Units;TH230_TH232 Method;RA226_ACTIVITY;RA226_ACTIVITY Units;RA226_ACTIVITY Method;PB210_RA226;PB210_RA226 Units;PB210_RA226 Method;PB210_ACTIVITY;PB210_ACTIVITY Units;PB210_ACTIVITY Method;AG;AG Units;AG Method;AL;AL Units;AL Method;AS;AS Units;AS Method;AU;AU Units;AU Method;B;B Units;B Method;BA;BA Units;BA Method;BE;BE Units;BE Method;BI;BI Units;BI Method;CA;CA Units;CA Method;CD;CD Units;CD Method;CO;CO Units;CO Method;CR;CR Units;CR Method;CS;CS Units;CS Method;CU;CU Units;CU Method;GA;GA Units;GA Method;GER;GER Units;GER Method;HF;HF Units;HF Method;INDIUM;INDIUM Units;INDIUM Method;IR;IR Units;IR Method;K;K Units;K Method;LI;LI Units;LI Method;MN;MN Units;MN Method;MO;MO Units;MO Method;NA;NA Units;NA Method;NB;NB Units;NB Method;NI;NI Units;NI Method;OS;OS Units;OS Method;P;P Units;P Method;PB;PB Units;PB Method;PD;PD Units;PD Method;PT;PT Units;PT Method;RB;RB Units;RB Method;RE;RE Units;RE Method;RH;RH Units;RH Method;RU;RU Units;RU Method;S;S Units;S Method;SB;SB Units;SB Method;SC;SC Units;SC Method;SN;SN Units;SN Method;SR;SR Units;SR Method;TA;TA Units;TA Method;TH;TH Units;TH Method;TI;TI Units;TI Method;TL;TL Units;TL Method;U;U Units;U Method;V;V Units;V Method;W;W Units;W Method;Y;Y Units;Y Method;ZN;ZN Units;ZN Method;ZR;ZR Units;ZR Method;DELTA_O18;DELTA_O18 Units;DELTA_O18 Method;DELTA_C13;DELTA_C13 Units;DELTA_C13 Method;DELTA_MO98;DELTA_MO98 Units;DELTA_MO98 Method;DELTA_ZN66;DELTA_ZN66 Units;DELTA_ZN66 Method;DELTA_ZN68;DELTA_ZN68 Units;DELTA_ZN68 Method;OS188;OS188 Units;OS188 Method;FE3P_FET;FE3P_FET Units;FE3P_FET Method;TI;TI Units;TI Method;AS;AS Units;AS Method;AS;AS Units;AS Method;GER;GER Units;GER Method;H2O_M;H2O_M Units;H2O_M Method;H2O_P;H2O_P Units;H2O_P Method;H2O_M;H2O_M Units;H2O_M Method;H2O_P;H2O_P Units;H2O_P Method;INDIUM;INDIUM Units;INDIUM Method
GROSCAMP-W-232429;;GROSSMAN-CAMP;GROSSMAN, 1991;38,7928;-77,4167;0,001;;;CONTINENTAL_RIFT;;;;"AAS; COL; ES; INAA; TITR; Unknown";WHOLE ROCK;IGNEOUS:VOLCANIC:MAFIC;DIABASE;;49,4;wt%;COL;0,29;wt%;COL;14,7;wt%;COL;;;;1,7;wt%;Unknown;;;;8,4;wt%;TITR;;;;;;;0,21;wt%;AAS;11,5;wt%;AAS;10,8;wt%;Unknown;;;;0,94;wt%;Unknown;0,02;wt%;AAS;0,11;wt%;COL;;;;;;;;;;0,16;wt%;TITR;0,89;wt%;TITR;;;;;;;;;;130;ppm;Unknown;51;ppm;Unknown;45;ppm;Unknown;;;;110;ppm;Unknown;;;;;;;0,08;ppm;INAA;;;;;;;;;;;;;;;;;;;;;;;;;;;;;;;;;;;;;;;;;;;;;;;;;;;;;;;;;;;;;;;;;;;;;;;;;;;;;;;;;;;;;;;;;;;;;;;;;;;;;;;;;;;;;;;;;;;;;;;;;5,2;ppm;INAA;12;ppm;INAA;;;;9;ppm;INAA;2,29;ppm;INAA;0,77;ppm;INAA;;;;0,45;ppm;INAA;;;;;;;;;;;;;2;ppm;INAA;0,32;ppm;INAA;0,08;ppm;TITR;;;;;;;;;;;;;;;;;;;;;;;;;;;;;;;;;;2;ppm;ES;53;ppm;Unknown;;;;;;;;;;;;;51;ppm;Unknown;620;ppm;Unknown;;;;45;ppm;Unknown;;;;;;;0,51;ppm;INAA;;;;;;;;;;;;;;;;;;;;;;;;;130;ppm;Unknown;;;;;;;;;;;;;;;;3;ppm;Unknown;;;;;;;;;;0,08;ppm;INAA;;;;43;ppm;INAA;;;;142;ppm;Unknown;0,022;ppm;INAA;;;;;;;;;;;;;;;;;;;22;ppm;Unknown;110;ppm;Unknown;30;ppm;Unknown;;;;;;;;;;;;;;;;;;;;;;;;;;;;;;;;;;0,16;wt%;TITR;0,89;wt%;TITR;0,16;wt%;TITR;0,89;wt%;TITR;;;
GROSCAMP-W-232430;;GROSSMAN-CAMP;GROSSMAN, 1991;38,7925;-77,4167;0,001;;;CONTINENTAL_RIFT;;;;"AAS; COL; ES; INAA; TITR; Unknown";WHOLE ROCK;IGNEOUS:VOLCANIC:MAFIC;DIABASE;;49,3;wt%;COL;0,54;wt%;COL;13,4;wt%;COL;;;;2,4;wt%;Unknown;;;;9,1;wt%;TITR;;;;;;;0,26;wt%;AAS;10,8;wt%;AAS;11,7;wt%;Unknown;;;;1,08;wt%;Unknown;0,03;wt%;AAS;0,09;wt%;COL;;;;;;;;;;0,13;wt%;TITR;0,57;wt%;TITR;;;;;;;;;;90;ppm;Unknown;49;ppm;Unknown;56;ppm;Unknown;;;;120;ppm;Unknown;;;;;;;0,15;ppm;INAA;;;;;;;;;;;;;;;;;;;;;;;;;;;;;;;;;;;;;;;;;;;;;;;;;;;;;;;;;;;;;;;;;;;;;;;;;;;;;;;;;;;;;;;;;;;;;;;;;;;;;;;;;;;;;;;;;;;;;;;;;4,2;ppm;INAA;10;ppm;INAA;;;;8,4;ppm;INAA;2,8;ppm;INAA;0,86;ppm;INAA;;;;0,5;ppm;INAA;;;;;;;;;;;;;2,4;ppm;INAA;0,36;ppm;INAA;0,01;ppm;TITR;;;;;;;;;;;;;;;;;;;;;;;;;;;;;;;;;;3;ppm;ES;40;ppm;Unknown;;;;;;;;;;;;;49;ppm;Unknown;560;ppm;Unknown;;;;56;ppm;Unknown;;;;;;;0,78;ppm;INAA;;;;;;;;;;;;;;;;;;;;;;;;;90;ppm;Unknown;;;;;;;;;;;;;;;;10;ppm;Unknown;;;;;;;;;;0,15;ppm;INAA;;;;59;ppm;INAA;;;;145;ppm;Unknown;0,061;ppm;INAA;;;;;;;;;;;;;;;;;;;30;ppm;Unknown;120;ppm;Unknown;31;ppm;Unknown;;;;;;;;;;;;;;;;;;;;;;;;;;;;;;;;;;0,13;wt%;TITR;0,57;wt%;TITR;0,13;wt%;TITR;0,57;wt%;TITR;;;
GROSCAMP-W-232431;;GROSSMAN-CAMP;GROSSMAN, 1991;38,636;-77,6167;0,001;;;CONTINENTAL_RIFT;;;;"AAS; COL; ES; ICP; INAA; TITR; Unknown";WHOLE ROCK;IGNEOUS:VOLCANIC:MAFIC;DIABASE;;51,6;wt%;COL;0,73;wt%;COL;15,6;wt%;COL;;;;1,4;wt%;Unknown;;;;8,6;wt%;TITR;;;;;;;0,18;wt%;AAS;7,8;wt%;AAS;11;wt%;Unknown;;;;2,02;wt%;Unknown;0,4;wt%;AAS;0,11;wt%;COL;;;;;;;;;;0,3;wt%;TITR;0,56;wt%;TITR;;;;;;;;;;56;ppm;Unknown;47;ppm;Unknown;59;ppm;Unknown;;;;79;ppm;Unknown;;;;;;;0,06;ppm;INAA;;;;;;;;;;;;;;;;;;;;;;;;;;;;;;;;;;;;;;;;;;;;;;;;;;;;;;;;;;;;;;;;;;;;;;;;;;;;;;;;;;;;;;;;;;;;;;;;;;;;;;;;;;;;;;;;;;;;;;;;;6,7;ppm;INAA;13;ppm;INAA;;;;7,6;ppm;INAA;2,26;ppm;INAA;0,75;ppm;INAA;;;;0,48;ppm;INAA;;;;;;;;;;;;;2,4;ppm;INAA;0,35;ppm;INAA;0,02;ppm;TITR;;;;;;;;;;;;;;;;;;;;;;;;;;;;;;;;;;4;ppm;ES;100;ppm;Unknown;;;;;;;;;;;;;47;ppm;Unknown;232;ppm;Unknown;1,2;ppm;INAA;59;ppm;Unknown;;;;;;;1,6;ppm;INAA;;;;;;;;;;;;;;;;;;;;;;3,1;ppm;ICP;56;ppm;Unknown;;;;;;;;;;0,5;ppm;Unknown;3,7;ppm;Unknown;14;ppm;Unknown;;;;;;;;;;0,06;ppm;INAA;;;;41;ppm;INAA;;;;145;ppm;Unknown;0,24;ppm;INAA;1,5;ppm;INAA;;;;;;;0,46;ppm;INAA;;;;;;;25;ppm;Unknown;79;ppm;Unknown;72;ppm;Unknown;;;;;;;;;;;;;;;;;;;;;;;;;;;;;;;;;;0,3;wt%;TITR;0,56;wt%;TITR;0,3;wt%;TITR;0,56;wt%;TITR;;;
GROSCAMP-W-232432;;GROSSMAN-CAMP;GROSSMAN, 1991;38,6408;-77,6214;0,001;;;CONTINENTAL_RIFT;;;;"AAS; COL; ES; ICP; INAA; TITR; Unknown";WHOLE ROCK;IGNEOUS:VOLCANIC:MAFIC;DIABASE;;52,3;wt%;COL;1,5;wt%;COL;15,6;wt%;COL;;;;2,6;wt%;Unknown;;;;8,9;wt%;TITR;;;;;;;0,17;wt%;AAS;3,8;wt%;AAS;8;wt%;Unknown;;;;2,7;wt%;Unknown;1,8;wt%;AAS;0,2;wt%;COL;;;;;;;;;;0,25;wt%;TITR;1,4;wt%;TITR;;;;;;;;;;18;ppm;Unknown;44;ppm;Unknown;120;ppm;Unknown;;;;83;ppm;Unknown;;;;;;;0,08;ppm;INAA;;;;;;;;;;;;;;;;;;;;;;;;;;;;;;;;;;;;;;;;;;;;;;;;;;;;;;;;;;;;;;;;;;;;;;;;;;;;;;;;;;;;;;;;;;;;;;;;;;;;;;;;;;;;;;;;;;;;;;;;;16;ppm;INAA;33;ppm;INAA;;;;17;ppm;INAA;4,8;ppm;INAA;1,49;ppm;INAA;;;;0,81;ppm;INAA;;;;;;;;;;;;;2,9;ppm;INAA;0,44;ppm;INAA;0,02;ppm;TITR;;;;;;;;;;;;;;;;;;;;;;;;;;;;;;;;;;80;ppm;ES;330;ppm;Unknown;;;;;;;;;;;;;44;ppm;Unknown;11;ppm;Unknown;0,85;ppm;INAA;120;ppm;Unknown;;;;;;;3,3;ppm;INAA;;;;;;;;;;;;;;;;;;;;;;9,5;ppm;ICP;18;ppm;Unknown;;;;;;;;;;9,8;ppm;Unknown;6,8;ppm;Unknown;77;ppm;Unknown;;;;;;;;;;0,08;ppm;INAA;0,4;ppm;INAA;34;ppm;INAA;;;;420;ppm;Unknown;0,73;ppm;INAA;2,9;ppm;INAA;;;;;;;0,53;ppm;INAA;;;;;;;33;ppm;Unknown;83;ppm;Unknown;139;ppm;Unknown;;;;;;;;;;;;;;;;;;;;;;;;;;;;;;;;;;0,25;wt%;TITR;1,4;wt%;TITR;0,25;wt%;TITR;1,4;wt%;TITR;;;
GROSCAMP-W-232433;;GROSSMAN-CAMP;GROSSMAN, 1991;38,6492;-77,6;0,001;;;CONTINENTAL_RIFT;;;;"AAS; COL; ES; ICP; INAA; TITR; Unknown";WHOLE ROCK;IGNEOUS:VOLCANIC:MAFIC;DIABASE;;52,6;wt%;COL;1,4;wt%;COL;14,2;wt%;COL;;;;2,2;wt%;Unknown;;;;9,4;wt%;TITR;;;;;;;0,2;wt%;AAS;5,8;wt%;AAS;9,9;wt%;Unknown;;;;2,16;wt%;Unknown;0,83;wt%;AAS;0,19;wt%;COL;;;;;;;;;;0,17;wt%;TITR;0,67;wt%;TITR;;;;;;;;;;35;ppm;Unknown;47;ppm;Unknown;160;ppm;Unknown;;;;120;ppm;Unknown;;;;;;;0,1;ppm;INAA;;;;;;;;;;;;;;;;;;;;;;;;;;;;;;;;;;;;;;;;;;;;;;;;;;;;;;;;;;;;;;;;;;;;;;;;;;;;;;;;;;;;;;;;;;;;;;;;;;;;;;;;;;;;;;;;;;;;;;;;;14;ppm;INAA;30;ppm;INAA;;;;15;ppm;INAA;4,4;ppm;INAA;1,2;ppm;INAA;;;;0,76;ppm;INAA;;;;;;;;;;;;;2,5;ppm;INAA;0,37;ppm;INAA;0,01;ppm;TITR;;;;;;;;;;;;;;;;;;;;;;;;;;;;;;;;;;11;ppm;ES;197;ppm;Unknown;;;;;;;;;;;;;47;ppm;Unknown;52;ppm;Unknown;1,9;ppm;INAA;160;ppm;Unknown;;;;;;;3,1;ppm;INAA;;;;;;;;;;;;;;;;;;;;;;9,7;ppm;ICP;35;ppm;Unknown;;;;;;;;;;9;ppm;Unknown;5,6;ppm;Unknown;28;ppm;Unknown;;;;;;;;;;0,1;ppm;INAA;0,38;ppm;INAA;38;ppm;INAA;;;;197;ppm;Unknown;0,64;ppm;INAA;3;ppm;INAA;;;;;;;0,64;ppm;INAA;;;;;;;31;ppm;Unknown;120;ppm;Unknown;132;ppm;Unknown;;;;;;;;;;;;;;;;;;;;;;;;;;;;;;;;;;0,17;wt%;TITR;0,67;wt%;TITR;0,17;wt%;TITR;0,67;wt%;TITR;;;
GROSCAMP-W-232434;;GROSSMAN-CAMP;GROSSMAN, 1991;38,6425;-77,5833;0,001;;;CONTINENTAL_RIFT;;;;"AAS; COL; ES; ICP; INAA; TITR; Unknown";WHOLE ROCK;IGNEOUS:VOLCANIC:MAFIC;DIABASE;;52,9;wt%;COL;1,2;wt%;COL;16,1;wt%;COL;;;;1,9;wt%;Unknown;;;;8;wt%;TITR;;;;;;;0,16;wt%;AAS;4,9;wt%;AAS;9,8;wt%;Unknown;;;;2,16;wt%;Unknown;0,86;wt%;AAS;0,18;wt%;COL;;;;;;;;;;0,37;wt%;TITR;0,55;wt%;TITR;;;;;;;;;;48;ppm;Unknown;41;ppm;Unknown;120;ppm;Unknown;;;;93;ppm;Unknown;;;;;;;0,08;ppm;INAA;;;;;;;;;;;;;;;;;;;;;;;;;;;;;;;;;;;;;;;;;;;;;;;;;;;;;;;;;;;;;;;;;;;;;;;;;;;;;;;;;;;;;;;;;;;;;;;;;;;;;;;;;;;;;;;;;;;;;;;;;14;ppm;INAA;29;ppm;INAA;;;;14;ppm;INAA;4,1;ppm;INAA;1,25;ppm;INAA;;;;0,69;ppm;INAA;;;;;;;;;;;;;2,4;ppm;INAA;0,41;ppm;INAA;0,01;ppm;TITR;;;;;;;;;;;;;;;;;;;;;;;;;;;;;;;;;;10;ppm;ES;206;ppm;Unknown;;;;;;;;;;;;;41;ppm;Unknown;44;ppm;Unknown;2;ppm;INAA;120;ppm;Unknown;;;;;;;3,2;ppm;INAA;;;;;;;;;;;;;;;;;;;;;;8,6;ppm;ICP;48;ppm;Unknown;;;;;;;;;;8,8;ppm;Unknown;8,8;ppm;Unknown;32;ppm;Unknown;;;;;;;;;;0,08;ppm;INAA;;;;32;ppm;INAA;;;;238;ppm;Unknown;0,74;ppm;INAA;3;ppm;INAA;;;;;;;0,68;ppm;INAA;;;;;;;30;ppm;Unknown;93;ppm;Unknown;130;ppm;Unknown;;;;;;;;;;;;;;;;;;;;;;;;;;;;;;;;;;0,37;wt%;TITR;0,55;wt%;TITR;0,37;wt%;TITR;0,55;wt%;TITR;;;
GROSCAMP-W-232435;;GROSSMAN-CAMP;GROSSMAN, 1991;38,655;-77,6381;0,001;;;CONTINENTAL_RIFT;;;;"AAS; COL; ES; ICP; INAA; TITR; Unknown";WHOLE ROCK;IGNEOUS:VOLCANIC:MAFIC;DIABASE;;49,6;wt%;COL;0,69;wt%;COL;15;wt%;COL;;;;2,1;wt%;Unknown;;;;8,1;wt%;TITR;;;;;;;0,2;wt%;AAS;7,9;wt%;AAS;10,6;wt%;Unknown;;;;1,89;wt%;Unknown;0,44;wt%;AAS;0,1;wt%;COL;;;;;;;;;;0,36;wt%;TITR;1,3;wt%;TITR;;;;;;;;;;58;ppm;Unknown;48;ppm;Unknown;65;ppm;Unknown;;;;99;ppm;Unknown;;;;;;;0,19;ppm;INAA;;;;;;;;;;;;;;;;;;;;;;;;;;;;;;;;;;;;;;;;;;;;;;;;;;;;;;;;;;;;;;;;;;;;;;;;;;;;;;;;;;;;;;;;;;;;;;;;;;;;;;;;;;;;;;;;;;;;;;;;;4,6;ppm;INAA;9,8;ppm;INAA;;;;;;;1,96;ppm;INAA;0,73;ppm;INAA;;;;0,48;ppm;INAA;;;;;;;;;;;;;2,1;ppm;INAA;0,3;ppm;INAA;0,2;ppm;TITR;;;;;;;;;;;;;;;;;;;;;;;;;;;;;;;;;;14;ppm;ES;129;ppm;Unknown;;;;;;;;;;;;;48;ppm;Unknown;266;ppm;Unknown;1,1;ppm;INAA;65;ppm;Unknown;;;;;;;1,5;ppm;INAA;;;;;;;;;;;;;;;;;;;;;;2,1;ppm;ICP;58;ppm;Unknown;;;;;;;;;;0,7;ppm;Unknown;1,3;ppm;Unknown;23;ppm;Unknown;;;;;;;;;;0,19;ppm;INAA;;;;42;ppm;INAA;;;;166;ppm;Unknown;0,17;ppm;INAA;0,99;ppm;INAA;;;;;;;;;;;;;;;;24;ppm;Unknown;99;ppm;Unknown;65;ppm;Unknown;;;;;;;;;;;;;;;;;;;;;;;;;;;;;;;;;;0,36;wt%;TITR;1,3;wt%;TITR;0,36;wt%;TITR;1,3;wt%;TITR;;;
GROSCAMP-W-232436;;GROSSMAN-CAMP;GROSSMAN, 1991;38,655;-77,6167;0,001;;;CONTINENTAL_RIFT;;;;"AAS; COL; ES; ICP; INAA; TITR; Unknown";WHOLE ROCK;IGNEOUS:VOLCANIC:MAFIC;DIABASE;;49,5;wt%;COL;0,72;wt%;COL;15;wt%;COL;;;;4,4;wt%;Unknown;;;;5,9;wt%;TITR;;;;;;;0,23;wt%;AAS;8;wt%;AAS;8;wt%;Unknown;;;;3,1;wt%;Unknown;0,77;wt%;AAS;0,09;wt%;COL;;;;;;;;;;0,52;wt%;TITR;2,8;wt%;TITR;;;;;;;;;;56;ppm;Unknown;42;ppm;Unknown;140;ppm;Unknown;;;;59;ppm;Unknown;;;;;;;0,14;ppm;INAA;;;;;;;;;;;;;;;;;;;;;;;;;;;;;;;;;;;;;;;;;;;;;;;;;;;;;;;;;;;;;;;;;;;;;;;;;;;;;;;;;;;;;;;;;;;;;;;;;;;;;;;;;;;;;;;;;;;;;;;;;7,4;ppm;INAA;14;ppm;INAA;;;;7,6;ppm;INAA;2,31;ppm;INAA;0,88;ppm;INAA;;;;0,55;ppm;INAA;;;;;;;;;;;;;2,5;ppm;INAA;0,45;ppm;INAA;0,01;ppm;TITR;;;;;;;;;;;;;;;;;;;;;;;;;;;;;;;;;;58;ppm;ES;188;ppm;Unknown;;;;;;;;;;;;;42;ppm;Unknown;254;ppm;Unknown;0,39;ppm;INAA;140;ppm;Unknown;;;;;;;1,5;ppm;INAA;;;;;;;;;;;;;;;;;;;;;;2,3;ppm;ICP;56;ppm;Unknown;;;;;;;;;;;;;1;ppm;Unknown;46;ppm;Unknown;;;;;;;;;;0,14;ppm;INAA;;;;42;ppm;INAA;;;;226;ppm;Unknown;0,19;ppm;INAA;0,86;ppm;INAA;;;;;;;0,63;ppm;INAA;;;;;;;27;ppm;Unknown;59;ppm;Unknown;67;ppm;Unknown;;;;;;;;;;;;;;;;;;;;;;;;;;;;;;;;;;0,52;wt%;TITR;2,8;wt%;TITR;0,52;wt%;TITR;2,8;wt%;TITR;;;
GROSCAMP-W-232437;;GROSSMAN-CAMP;GROSSMAN, 1991;38,6678;-77,5833;0,001;;;CONTINENTAL_RIFT;;;;"AAS; COL; ES; ICP; INAA; TITR; Unknown";WHOLE ROCK;IGNEOUS:VOLCANIC:MAFIC;DIABASE;;52,4;wt%;COL;1,2;wt%;COL;15,7;wt%;COL;;;;1,8;wt%;Unknown;;;;8,5;wt%;TITR;;;;;;;0,17;wt%;AAS;5,5;wt%;AAS;9,9;wt%;Unknown;;;;2,16;wt%;Unknown;1,1;wt%;AAS;0,17;wt%;COL;;;;;;;;;;0,3;wt%;TITR;0,72;wt%;TITR;;;;;;;;;;45;ppm;Unknown;44;ppm;Unknown;140;ppm;Unknown;;;;98;ppm;Unknown;;;;;;;0,1;ppm;INAA;;;;;;;;;;;;;;;;;;;;;;;;;;;;;;;;;;;;;;;;;;;;;;;;;;;;;;;;;;;;;;;;;;;;;;;;;;;;;;;;;;;;;;;;;;;;;;;;;;;;;;;;;;;;;;;;;;;;;;;;;13;ppm;INAA;27;ppm;INAA;;;;15;ppm;INAA;3,8;ppm;INAA;1,2;ppm;INAA;;;;0,67;ppm;INAA;;;;;;;;;;;;;2,3;ppm;INAA;0,36;ppm;INAA;0,01;ppm;TITR;;;;;;;;;;;;;;;;;;;;;;;;;;;;;;;;;;12;ppm;ES;228;ppm;Unknown;;;;;;;;;;;;;44;ppm;Unknown;55;ppm;Unknown;1,2;ppm;INAA;140;ppm;Unknown;;;;;;;2,7;ppm;INAA;;;;;;;;;;;;;;;;;;;;;;9,1;ppm;ICP;45;ppm;Unknown;;;;;;;;;;7,8;ppm;Unknown;8;ppm;Unknown;40;ppm;Unknown;;;;;;;;;;0,1;ppm;INAA;0,44;ppm;INAA;35;ppm;INAA;;;;244;ppm;Unknown;0,6;ppm;INAA;2,8;ppm;INAA;;;;;;;;;;;;;;;;30;ppm;Unknown;98;ppm;Unknown;114;ppm;Unknown;;;;;;;;;;;;;;;;;;;;;;;;;;;;;;;;;;0,3;wt%;TITR;0,72;wt%;TITR;0,3;wt%;TITR;0,72;wt%;TITR;;;
GROSCAMP-W-232438;;GROSSMAN-CAMP;GROSSMAN, 1991;38,7314;-77,5547;0,001;;;CONTINENTAL_RIFT;;;;"AAS; COL; ES; ICP; INAA; TITR; Unknown";WHOLE ROCK;IGNEOUS:VOLCANIC:MAFIC;DIABASE;;52,6;wt%;COL;1,1;wt%;COL;14;wt%;COL;;;;1,4;wt%;Unknown;;;;8,7;wt%;TITR;;;;;;;0,17;wt%;AAS;7,4;wt%;AAS;10,8;wt%;Unknown;;;;2,02;wt%;Unknown;0,42;wt%;AAS;0,13;wt%;COL;;;;;;;;;;0,2;wt%;TITR;0,56;wt%;TITR;;;;;;;;;;71;ppm;Unknown;48;ppm;Unknown;100;ppm;Unknown;;;;93;ppm;Unknown;;;;;;;0,04;ppm;INAA;;;;;;;;;;;;;;;;;;;;;;;;;;;;;;;;;;;;;;;;;;;;;;;;;;;;;;;;;;;;;;;;;;;;;;;;;;;;;;;;;;;;;;;;;;;;;;;;;;;;;;;;;;;;;;;;;;;;;;;;;11;ppm;INAA;22;ppm;INAA;;;;12;ppm;INAA;3,4;ppm;INAA;1;ppm;INAA;;;;0,58;ppm;INAA;;;;;;;;;;;;;1,9;ppm;INAA;0,34;ppm;INAA;0,02;ppm;TITR;;;;;;;;;;;;;;;;;;;;;;;;;;;;;;;;;;9;ppm;ES;141;ppm;Unknown;;;;;;;;;;;;;48;ppm;Unknown;227;ppm;Unknown;0,94;ppm;INAA;100;ppm;Unknown;;;;;;;2,7;ppm;INAA;;;;;;;;;;;;;;;;;;;;;;7,1;ppm;ICP;71;ppm;Unknown;;;;;;;;;;7,4;ppm;Unknown;7,1;ppm;Unknown;18;ppm;Unknown;;;;;;;;;;0,04;ppm;INAA;;;;40;ppm;INAA;;;;174;ppm;Unknown;0,52;ppm;INAA;2,4;ppm;INAA;;;;;;;0,48;ppm;INAA;;;;;;;24;ppm;Unknown;93;ppm;Unknown;98;ppm;Unknown;;;;;;;;;;;;;;;;;;;;;;;;;;;;;;;;;;0,2;wt%;TITR;0,56;wt%;TITR;0,2;wt%;TITR;0,56;wt%;TITR;;;
GROSCAMP-W-232439;;GROSSMAN-CAMP;GROSSMAN, 1991;38,7356;-77,5333;0,001;;;CONTINENTAL_RIFT;;;;"AAS; COL; ES; ICP; INAA; TITR; Unknown";WHOLE ROCK;IGNEOUS:VOLCANIC:MAFIC;DIABASE;;52,5;wt%;COL;1;wt%;COL;15,5;wt%;COL;;;;1,6;wt%;Unknown;;;;8,2;wt%;TITR;;;;;;;0,16;wt%;AAS;6,4;wt%;AAS;10,8;wt%;Unknown;;;;2,29;wt%;Unknown;0,64;wt%;AAS;0,14;wt%;COL;;;;;;;;;;0,28;wt%;TITR;0,34;wt%;TITR;;;;;;;;;;63;ppm;Unknown;44;ppm;Unknown;83;ppm;Unknown;;;;85;ppm;Unknown;;;;;;;0,05;ppm;INAA;;;;;;;;;;;;;;;;;;;;;;;;;;;;;;;;;;;;;;;;;;;;;;;;;;;;;;;;;;;;;;;;;;;;;;;;;;;;;;;;;;;;;;;;;;;;;;;;;;;;;;;;;;;;;;;;;;;;;;;;;10;ppm;INAA;22;ppm;INAA;;;;13;ppm;INAA;3,4;ppm;INAA;1,05;ppm;INAA;;;;0,59;ppm;INAA;;;;;;;;;;;;;2,1;ppm;INAA;0,32;ppm;INAA;0,01;ppm;TITR;;;;;;;;;;;;;;;;;;;;;;;;;;;;;;;;;;7;ppm;ES;162;ppm;Unknown;;;;;;;;;;;;;44;ppm;Unknown;112;ppm;Unknown;0,82;ppm;INAA;83;ppm;Unknown;;;;;;;2,5;ppm;INAA;;;;;;;;;;;;;;;;;;;;;;6,6;ppm;ICP;63;ppm;Unknown;;;;;;;;;;6,9;ppm;Unknown;11;ppm;Unknown;22;ppm;Unknown;;;;;;;;;;0,05;ppm;INAA;;;;36;ppm;INAA;;;;196;ppm;Unknown;0,5;ppm;INAA;2,1;ppm;INAA;;;;;;;0,63;ppm;INAA;;;;;;;26;ppm;Unknown;85;ppm;Unknown;100;ppm;Unknown;;;;;;;;;;;;;;;;;;;;;;;;;;;;;;;;;;0,28;wt%;TITR;0,34;wt%;TITR;0,28;wt%;TITR;0,34;wt%;TITR;;;
GROSCAMP-W-232440;;GROSSMAN-CAMP;GROSSMAN, 1991;38,7361;-77,5333;0,001;;;CONTINENTAL_RIFT;;;;"AAS; COL; ES; ICP; INAA; TITR; Unknown";WHOLE ROCK;IGNEOUS:VOLCANIC:MAFIC;DIABASE;;52,8;wt%;COL;1,6;wt%;COL;13,5;wt%;COL;;;;4,8;wt%;Unknown;;;;8;wt%;TITR;;;;;;;0,19;wt%;AAS;4,8;wt%;AAS;7,1;wt%;Unknown;;;;2,16;wt%;Unknown;2;wt%;AAS;0,24;wt%;COL;;;;;;;;;;0,3;wt%;TITR;1,3;wt%;TITR;;;;;;;;;;31;ppm;Unknown;46;ppm;Unknown;130;ppm;Unknown;;;;87;ppm;Unknown;;;;;;;0,08;ppm;INAA;;;;;;;;;;;;;;;;;;;;;;;;;;;;;;;;;;;;;;;;;;;;;;;;;;;;;;;;;;;;;;;;;;;;;;;;;;;;;;;;;;;;;;;;;;;;;;;;;;;;;;;;;;;;;;;;;;;;;;;;;17;ppm;INAA;33;ppm;INAA;;;;19;ppm;INAA;5,2;ppm;INAA;1,4;ppm;INAA;;;;0,89;ppm;INAA;;;;;;;;;;;;;3;ppm;INAA;0,47;ppm;INAA;0,01;ppm;TITR;;;;;;;;;;;;;;;;;;;;;;;;;;;;;;;;;;34;ppm;ES;380;ppm;Unknown;;;;;;;;;;;;;46;ppm;Unknown;22;ppm;Unknown;1,1;ppm;INAA;130;ppm;Unknown;;;;;;;3,8;ppm;INAA;;;;;;;;;;;;;;;;;;;;;;12;ppm;ICP;31;ppm;Unknown;;;;;;;;;;8,4;ppm;Unknown;3,8;ppm;Unknown;78;ppm;Unknown;;;;;;;;;;0,08;ppm;INAA;0,36;ppm;INAA;37;ppm;INAA;;;;380;ppm;Unknown;0,84;ppm;INAA;3,6;ppm;INAA;;;;;;;0,76;ppm;INAA;;;;;;;35;ppm;Unknown;87;ppm;Unknown;162;ppm;Unknown;;;;;;;;;;;;;;;;;;;;;;;;;;;;;;;;;;0,3;wt%;TITR;1,3;wt%;TITR;0,3;wt%;TITR;1,3;wt%;TITR;;;