SAMPLE ID;IGSN;EXPEDITION ID;REFERENCES;LATITUDE;LONGITUDE;LOC PREC;MIN ELEVATION;MAX ELEVATION;TECTONIC SETTING;MIN AGE;AGE;MAX AGE;METHOD;ANALYZED MATERIAL;ROCK TYPE;ROCK NAME;MINERAL;SIO2;SIO2 Units;SIO2 Method;TIO2;TIO2 Units;TIO2 Method;AL2O3;AL2O3 Units;AL2O3 Method;CR2O3;CR2O3 Units;CR2O3 Method;FE2O3;FE2O3 Units;FE2O3 Method;FE2O3T;FE2O3T Units;FE2O3T Method;FEO;FEO Units;FEO Method;FEOT;FEOT Units;FEOT Method;NIO;NIO Units;NIO Method;MNO;MNO Units;MNO Method;MGO;MGO Units;MGO Method;CAO;CAO Units;CAO Method;SRO;SRO Units;SRO Method;NA2O;NA2O Units;NA2O Method;K2O;K2O Units;K2O Method;P2O5;P2O5 Units;P2O5 Method;BAO;BAO Units;BAO Method;LOI;LOI Units;LOI Method;H2O;H2O Units;H2O Method;H2O_M;H2O_M Units;H2O_M Method;H2O_P;H2O_P Units;H2O_P Method;SO3;SO3 Units;SO3 Method;COO;COO Units;COO Method;MN;MN Units;MN Method;NI;NI Units;NI Method;CO;CO Units;CO Method;CU;CU Units;CU Method;CD;CD Units;CD Method;ZN;ZN Units;ZN Method;AS;AS Units;AS Method;AG;AG Units;AG Method;S;S Units;S Method;ZRO2;ZRO2 Units;ZRO2 Method;AL;AL Units;AL Method;CA;CA Units;CA Method;SR87_SR86;SR87_SR86 Units;SR87_SR86 Method;SR87_SR86_INI;SR87_SR86_INI Units;SR87_SR86_INI Method;RB87_SR86;RB87_SR86 Units;RB87_SR86 Method;ND143_ND144;ND143_ND144 Units;ND143_ND144 Method;ND143_ND144_INI;ND143_ND144_INI Units;ND143_ND144_INI Method;SM147_ND144;SM147_ND144 Units;SM147_ND144 Method;E_ND;E_ND Units;E_ND Method;E_ND_INI;E_ND_INI Units;E_ND_INI Method;PB204_PB206;PB204_PB206 Units;PB204_PB206 Method;PB206_PB204;PB206_PB204 Units;PB206_PB204 Method;PB206_PB204_INI;PB206_PB204_INI Units;PB206_PB204_INI Method;PB207_PB204;PB207_PB204 Units;PB207_PB204 Method;PB207_PB204_INI;PB207_PB204_INI Units;PB207_PB204_INI Method;PB207_PB206;PB207_PB206 Units;PB207_PB206 Method;PB208_PB204;PB208_PB204 Units;PB208_PB204 Method;PB208_PB204_INI;PB208_PB204_INI Units;PB208_PB204_INI Method;PB208_PB206;PB208_PB206 Units;PB208_PB206 Method;HF176_HF177;HF176_HF177 Units;HF176_HF177 Method;RE187_OS188;RE187_OS188 Units;RE187_OS188 Method;OS187_OS188;OS187_OS188 Units;OS187_OS188 Method;OS187_OS188_INI;OS187_OS188_INI Units;OS187_OS188_INI Method;G_OS;G_OS Units;G_OS Method;G_OS_INI;G_OS_INI Units;G_OS_INI Method;ND143_ND144_INI;ND143_ND144_INI Units;ND143_ND144_INI Method;PB206_PB204_INI;PB206_PB204_INI Units;PB206_PB204_INI Method;PB207_PB204_INI;PB207_PB204_INI Units;PB207_PB204_INI Method;PB208_PB204_INI;PB208_PB204_INI Units;PB208_PB204_INI Method;SR87_SR86_INI;SR87_SR86_INI Units;SR87_SR86_INI Method;HE;HE Units;HE Method;HE3;HE3 Units;HE3 Method;HE3_HE4_R_RA;HE3_HE4_R_RA Units;HE3_HE4_R_RA Method;AR36;AR36 Units;AR36 Method;AR40;AR40 Units;AR40 Method;AR40_AR36;AR40_AR36 Units;AR40_AR36 Method;NE20;NE20 Units;NE20 Method;NE20_NE22;NE20_NE22 Units;NE20_NE22 Method;NE21_NE22;NE21_NE22 Units;NE21_NE22 Method;LA;LA Units;LA Method;CE;CE Units;CE Method;PR;PR Units;PR Method;ND;ND Units;ND Method;SM;SM Units;SM Method;EU;EU Units;EU Method;GD;GD Units;GD Method;TB;TB Units;TB Method;DY;DY Units;DY Method;HO;HO Units;HO Method;ER;ER Units;ER Method;TM;TM Units;TM Method;YB;YB Units;YB Method;LU;LU Units;LU Method;CO2;CO2 Units;CO2 Method;F;F Units;F Method;CL;CL Units;CL Method;U238_PB204;U238_PB204 Units;U238_PB204 Method;TH230_TH232;TH230_TH232 Units;TH230_TH232 Method;RA226_ACTIVITY;RA226_ACTIVITY Units;RA226_ACTIVITY Method;PB210_RA226;PB210_RA226 Units;PB210_RA226 Method;PB210_ACTIVITY;PB210_ACTIVITY Units;PB210_ACTIVITY Method;AG;AG Units;AG Method;AL;AL Units;AL Method;AS;AS Units;AS Method;AU;AU Units;AU Method;B;B Units;B Method;BA;BA Units;BA Method;BE;BE Units;BE Method;BI;BI Units;BI Method;CA;CA Units;CA Method;CD;CD Units;CD Method;CO;CO Units;CO Method;CR;CR Units;CR Method;CS;CS Units;CS Method;CU;CU Units;CU Method;GA;GA Units;GA Method;GER;GER Units;GER Method;HF;HF Units;HF Method;INDIUM;INDIUM Units;INDIUM Method;IR;IR Units;IR Method;K;K Units;K Method;LI;LI Units;LI Method;MN;MN Units;MN Method;MO;MO Units;MO Method;NA;NA Units;NA Method;NB;NB Units;NB Method;NI;NI Units;NI Method;OS;OS Units;OS Method;P;P Units;P Method;PB;PB Units;PB Method;PD;PD Units;PD Method;PT;PT Units;PT Method;RB;RB Units;RB Method;RE;RE Units;RE Method;RH;RH Units;RH Method;RU;RU Units;RU Method;S;S Units;S Method;SB;SB Units;SB Method;SC;SC Units;SC Method;SN;SN Units;SN Method;SR;SR Units;SR Method;TA;TA Units;TA Method;TH;TH Units;TH Method;TI;TI Units;TI Method;TL;TL Units;TL Method;U;U Units;U Method;V;V Units;V Method;W;W Units;W Method;Y;Y Units;Y Method;ZN;ZN Units;ZN Method;ZR;ZR Units;ZR Method;DELTA_O18;DELTA_O18 Units;DELTA_O18 Method;DELTA_C13;DELTA_C13 Units;DELTA_C13 Method;DELTA_MO98;DELTA_MO98 Units;DELTA_MO98 Method;DELTA_ZN66;DELTA_ZN66 Units;DELTA_ZN66 Method;DELTA_ZN68;DELTA_ZN68 Units;DELTA_ZN68 Method;OS188;OS188 Units;OS188 Method;FE3P_FET;FE3P_FET Units;FE3P_FET Method;TI;TI Units;TI Method;AS;AS Units;AS Method;AS;AS Units;AS Method;GER;GER Units;GER Method;H2O_M;H2O_M Units;H2O_M Method;H2O_P;H2O_P Units;H2O_P Method;H2O_M;H2O_M Units;H2O_M Method;H2O_P;H2O_P Units;H2O_P Method;INDIUM;INDIUM Units;INDIUM Method
GROSCAMP-W-237176;;GROSSMAN-CAMP;GROSSMAN, 1991;39,859;-77,2705;0,001;;;CONTINENTAL_RIFT;;;;"AAS; ES; ICP; INAA; Unknown";WHOLE ROCK;IGNEOUS:VOLCANIC:MAFIC;DIABASE;;;;;;;;;;;;;;;;;16,45;wt%;Unknown;;;;;;;;;;;;;;;;;;;;;;2,8;wt%;Unknown;;;;;;;;;;;;;;;;;;;;;;;;;;;;;;;28;ppm;Unknown;49;ppm;Unknown;178;ppm;Unknown;;;;92;ppm;Unknown;;;;0,14;ppm;AAS;0,03;ppm;INAA;;;;;;;;;;;;;;;;;;;;;;;;;;;;;;;;;;;;;;;;;;;;;;;;;;;;;;;;;;;;;;;;;;;;;;;;;;;;;;;;;;;;;;;;;;;;;;;;;;;;;;;;;;;;;;;;;;;;;;;;;23,4;ppm;INAA;47;ppm;INAA;;;;;;;6,5;ppm;INAA;1,7;ppm;INAA;;;;1,1;ppm;INAA;;;;;;;;;;;;;3,9;ppm;INAA;0,54;ppm;INAA;;;;0,06;ppm;INAA;0,1;ppm;INAA;;;;;;;;;;;;;;;;0,14;ppm;AAS;;;;;;;;;;12;ppm;ES;310;ppm;Unknown;;;;;;;;;;;;;49;ppm;Unknown;33;ppm;Unknown;2,3;ppm;INAA;178;ppm;Unknown;;;;;;;5,5;ppm;INAA;;;;;;;;;;;;;;;;;;;;;;18;ppm;ICP;28;ppm;Unknown;;;;;;;;;;18;ppm;Unknown;4,7;ppm;Unknown;46;ppm;Unknown;;;;;;;;;;0,03;ppm;INAA;;;;34;ppm;INAA;;;;220;ppm;Unknown;1,2;ppm;INAA;5,1;ppm;INAA;;;;;;;1,2;ppm;INAA;;;;;;;42;ppm;Unknown;92;ppm;Unknown;185;ppm;Unknown;;;;;;;;;;;;;;;;;;;;;;;;;;;;;;;;;;;;;;;;;;;;;;;;
GROSCAMP-W-237177;;GROSSMAN-CAMP;GROSSMAN, 1991;39,859;-77,2705;0,001;;;CONTINENTAL_RIFT;;;;"AAS; ES; ICP; INAA; Unknown";WHOLE ROCK;IGNEOUS:VOLCANIC:MAFIC;DIABASE;;;;;;;;;;;;;;;;;17,88;wt%;Unknown;;;;;;;;;;;;;;;;;;;;;;2,74;wt%;Unknown;;;;;;;;;;;;;;;;;;;;;;;;;;;;;;;17;ppm;Unknown;51;ppm;Unknown;235;ppm;Unknown;;;;115;ppm;Unknown;;;;0,076;ppm;AAS;0,03;ppm;INAA;;;;;;;;;;;;;;;;;;;;;;;;;;;;;;;;;;;;;;;;;;;;;;;;;;;;;;;;;;;;;;;;;;;;;;;;;;;;;;;;;;;;;;;;;;;;;;;;;;;;;;;;;;;;;;;;;;;;;;;;;22;ppm;INAA;48;ppm;INAA;;;;27;ppm;INAA;6,6;ppm;INAA;1,9;ppm;INAA;;;;1,1;ppm;INAA;;;;;;;;;;;;;3,9;ppm;INAA;0,58;ppm;INAA;;;;0,06;ppm;INAA;0,21;ppm;INAA;;;;;;;;;;;;;;;;0,076;ppm;AAS;;;;;;;;;;26;ppm;ES;350;ppm;Unknown;;;;;;;;;;;;;51;ppm;Unknown;23;ppm;Unknown;2,5;ppm;INAA;235;ppm;Unknown;;;;;;;5;ppm;INAA;;;;;;;;;;;;;;;;;;;;;;18;ppm;ICP;17;ppm;Unknown;;;;;;;;;;48;ppm;Unknown;6,6;ppm;Unknown;57;ppm;Unknown;;;;;;;;;;0,03;ppm;INAA;;;;38;ppm;INAA;;;;231;ppm;Unknown;1,1;ppm;INAA;4,7;ppm;INAA;;;;;;;0,82;ppm;INAA;;;;;;;38;ppm;Unknown;115;ppm;Unknown;194;ppm;Unknown;;;;;;;;;;;;;;;;;;;;;;;;;;;;;;;;;;;;;;;;;;;;;;;;
GROSCAMP-W-237178;;GROSSMAN-CAMP;GROSSMAN, 1991;39,859;-77,2705;0,001;;;CONTINENTAL_RIFT;;;;"AAS; ES; ICP; INAA; Unknown";WHOLE ROCK;IGNEOUS:VOLCANIC:MAFIC;DIABASE;;;;;;;;;;;;;;;;;19,02;wt%;Unknown;;;;;;;;;;;;;;;;;;;;;;2,63;wt%;Unknown;;;;;;;;;;;;;;;;;;;;;;;;;;;;;;;17;ppm;Unknown;55;ppm;Unknown;178;ppm;Unknown;;;;111;ppm;Unknown;;;;0,11;ppm;AAS;0,04;ppm;INAA;;;;;;;;;;;;;;;;;;;;;;;;;;;;;;;;;;;;;;;;;;;;;;;;;;;;;;;;;;;;;;;;;;;;;;;;;;;;;;;;;;;;;;;;;;;;;;;;;;;;;;;;;;;;;;;;;;;;;;;;;21,4;ppm;INAA;43;ppm;INAA;;;;28;ppm;INAA;6,3;ppm;INAA;1,7;ppm;INAA;;;;1,3;ppm;INAA;;;;;;;;;;;;;3,9;ppm;INAA;0,54;ppm;INAA;;;;0,06;ppm;INAA;0,22;ppm;INAA;;;;;;;;;;;;;;;;0,11;ppm;AAS;;;;;;;;;;28;ppm;ES;340;ppm;Unknown;;;;;;;;;;;;;55;ppm;Unknown;26;ppm;Unknown;1,7;ppm;INAA;178;ppm;Unknown;;;;;;;5,5;ppm;INAA;;;;;;;;;;;;;;;;;;;;;;19;ppm;ICP;17;ppm;Unknown;;;;;;;;;;42;ppm;Unknown;6,3;ppm;Unknown;42;ppm;Unknown;;;;;;;;;;0,04;ppm;INAA;;;;39;ppm;INAA;;;;207;ppm;Unknown;1,3;ppm;INAA;5;ppm;INAA;;;;;;;0,92;ppm;INAA;;;;;;;31;ppm;Unknown;111;ppm;Unknown;180;ppm;Unknown;;;;;;;;;;;;;;;;;;;;;;;;;;;;;;;;;;;;;;;;;;;;;;;;
GROSCAMP-W-237179;;GROSSMAN-CAMP;GROSSMAN, 1991;39,859;-77,2705;0,001;;;CONTINENTAL_RIFT;;;;"AAS; ES; ICP; INAA; Unknown";WHOLE ROCK;IGNEOUS:VOLCANIC:MAFIC;DIABASE;;;;;;;;;;;;;;;;;18,45;wt%;Unknown;;;;;;;;;;;;;;;;;;;;;;2,86;wt%;Unknown;;;;;;;;;;;;;;;;;;;;;;;;;;;;;;;15;ppm;Unknown;55;ppm;Unknown;140;ppm;Unknown;;;;105;ppm;Unknown;;;;0,08;ppm;AAS;0,04;ppm;INAA;;;;;;;;;;;;;;;;;;;;;;;;;;;;;;;;;;;;;;;;;;;;;;;;;;;;;;;;;;;;;;;;;;;;;;;;;;;;;;;;;;;;;;;;;;;;;;;;;;;;;;;;;;;;;;;;;;;;;;;;;18,1;ppm;INAA;37;ppm;INAA;;;;19;ppm;INAA;5,2;ppm;INAA;1,8;ppm;INAA;;;;1;ppm;INAA;;;;;;;;;;;;;3;ppm;INAA;0,45;ppm;INAA;;;;0,05;ppm;INAA;0,21;ppm;INAA;;;;;;;;;;;;;;;;0,08;ppm;AAS;;;;;;;;;;19;ppm;ES;310;ppm;Unknown;;;;;;;;;;;;;55;ppm;Unknown;25;ppm;Unknown;1,8;ppm;INAA;140;ppm;Unknown;;;;;;;4,5;ppm;INAA;;;;;;;;;;;;;;;;;;;;;;20;ppm;ICP;15;ppm;Unknown;;;;;;;;;;110;ppm;Unknown;16;ppm;Unknown;40;ppm;Unknown;;;;;;;;;;0,04;ppm;INAA;;;;38;ppm;INAA;;;;236;ppm;Unknown;1,2;ppm;INAA;4;ppm;INAA;;;;;;;0,91;ppm;INAA;;;;;;;37;ppm;Unknown;105;ppm;Unknown;164;ppm;Unknown;;;;;;;;;;;;;;;;;;;;;;;;;;;;;;;;;;;;;;;;;;;;;;;;
GROSCAMP-W-237180;;GROSSMAN-CAMP;GROSSMAN, 1991;39,859;-77,2705;0,001;;;CONTINENTAL_RIFT;;;;"AAS; ES; ICP; INAA; Unknown";WHOLE ROCK;IGNEOUS:VOLCANIC:MAFIC;DIABASE;;;;;;;;;;;;;;;;;15,87;wt%;Unknown;;;;;;;;;;;;;;;;;;;;;;2,84;wt%;Unknown;;;;;;;;;;;;;;;;;;;;;;;;;;;;;;;27;ppm;Unknown;46;ppm;Unknown;170;ppm;Unknown;;;;99;ppm;Unknown;;;;0,12;ppm;AAS;0,04;ppm;INAA;;;;;;;;;;;;;;;;;;;;;;;;;;;;;;;;;;;;;;;;;;;;;;;;;;;;;;;;;;;;;;;;;;;;;;;;;;;;;;;;;;;;;;;;;;;;;;;;;;;;;;;;;;;;;;;;;;;;;;;;;23,3;ppm;INAA;50;ppm;INAA;;;;;;;6,5;ppm;INAA;1,7;ppm;INAA;;;;1,3;ppm;INAA;;;;;;;;;;;;;3,8;ppm;INAA;0,53;ppm;INAA;;;;0,06;ppm;INAA;0,2;ppm;INAA;;;;;;;;;;;;;;;;0,12;ppm;AAS;;;;;;;;;;18;ppm;ES;295;ppm;Unknown;;;;;;;;;;;;;46;ppm;Unknown;31;ppm;Unknown;1,9;ppm;INAA;170;ppm;Unknown;;;;;;;5,1;ppm;INAA;;;;;;;;;;;;;;;;;;;;;;18;ppm;ICP;27;ppm;Unknown;;;;;;;;;;16;ppm;Unknown;7;ppm;Unknown;39;ppm;Unknown;;;;;;;;;;0,04;ppm;INAA;0,4;ppm;INAA;34;ppm;INAA;;;;217;ppm;Unknown;1,1;ppm;INAA;5;ppm;INAA;;;;;;;1;ppm;INAA;;;;;;;34;ppm;Unknown;99;ppm;Unknown;166;ppm;Unknown;;;;;;;;;;;;;;;;;;;;;;;;;;;;;;;;;;;;;;;;;;;;;;;;
GROSCAMP-W-241502;;GROSSMAN-CAMP;GROSSMAN, 1991;40,1167;-76,7;0,001;;;CONTINENTAL_RIFT;;;;"AAS; COL; INAA; TITR; Unknown";WHOLE ROCK;IGNEOUS:VOLCANIC:MAFIC;DIABASE;;51,5;wt%;COL;0,87;wt%;COL;13,05;wt%;COL;;;;1,08;wt%;Unknown;;;;9,29;wt%;TITR;;;;;;;0,18;wt%;AAS;10,8;wt%;AAS;10,5;wt%;Unknown;;;;2,03;wt%;Unknown;0,48;wt%;AAS;0,12;wt%;COL;;;;;;;;;;;;;;;;;;;;;;;;;;;;;;;;;;;;;;;;;;;;;;0,01;ppm;INAA;;;;;;;;;;;;;;;;;;;;;;;;;;;;;;;;;;;;;;;;;;;;;;;;;;;;;;;;;;;;;;;;;;;;;;;;;;;;;;;;;;;;;;;;;;;;;;;;;;;;;;;;;;;;;;;;;;;;;;;;;;;;;;;;;;;;;;;;;;;;;;;;;;;;;;;;;;;;;;;;;;;;;;;;;0,05;ppm;INAA;;;;;;;;;;;;;;;;;;;;;;;;;;;;;;;;;;;;;;;;;;;;;;;;;;;;;;;;;;;;;;;;;;;;;;;;;;;;;;;;;;;;;;;;;;;;;;;;;;;;;;;7,5;ppm;Unknown;21;ppm;Unknown;;;;;;;;;;;;;0,01;ppm;INAA;;;;;;;;;;;;;;;;;;;;;;;;;;;;;;;;;;;;;;;;;;;;;;;;;;;;;;;;;;;;;;;;;;;;;;;;;;;;;;;;;;;;;;;;;;
GROSCAMP-W-237182;;GROSSMAN-CAMP;GROSSMAN, 1991;39,859;-77,2705;0,001;;;CONTINENTAL_RIFT;;;;"AAS; ES; ICP; INAA; Unknown";WHOLE ROCK;IGNEOUS:VOLCANIC:MAFIC;DIABASE;;;;;;;;;;;;;;;;;15,44;wt%;Unknown;;;;;;;;;;;;;;;;;;;;;;2,78;wt%;Unknown;;;;;;;;;;;;;;;;;;;;;;;;;;;;;;;24;ppm;Unknown;44;ppm;Unknown;147;ppm;Unknown;;;;105;ppm;Unknown;;;;0,074;ppm;AAS;0,05;ppm;INAA;;;;;;;;;;;;;;;;;;;;;;;;;;;;;;;;;;;;;;;;;;;;;;;;;;;;;;;;;;;;;;;;;;;;;;;;;;;;;;;;;;;;;;;;;;;;;;;;;;;;;;;;;;;;;;;;;;;;;;;;;21,2;ppm;INAA;47;ppm;INAA;;;;28;ppm;INAA;6,5;ppm;INAA;1,8;ppm;INAA;;;;1,1;ppm;INAA;;;;;;;;;;;;;3,8;ppm;INAA;0,56;ppm;INAA;;;;0,06;ppm;INAA;0,21;ppm;INAA;;;;;;;;;;;;;;;;0,074;ppm;AAS;;;;;;;;;;35;ppm;ES;340;ppm;Unknown;;;;;;;;;;;;;44;ppm;Unknown;4,3;ppm;Unknown;1,9;ppm;INAA;147;ppm;Unknown;;;;;;;5,3;ppm;INAA;;;;;;;;;;;;;;;;;;;;;;17;ppm;ICP;24;ppm;Unknown;;;;;;;;;;13;ppm;Unknown;4,9;ppm;Unknown;46;ppm;Unknown;;;;;;;;;;0,05;ppm;INAA;;;;34;ppm;INAA;;;;230;ppm;Unknown;1,1;ppm;INAA;4,8;ppm;INAA;;;;;;;1;ppm;INAA;;;;;;;43;ppm;Unknown;105;ppm;Unknown;175;ppm;Unknown;;;;;;;;;;;;;;;;;;;;;;;;;;;;;;;;;;;;;;;;;;;;;;;;
GROSCAMP-W-237183;;GROSSMAN-CAMP;GROSSMAN, 1991;39,859;-77,2705;0,001;;;CONTINENTAL_RIFT;;;;"AAS; ES; ICP; INAA; Unknown";WHOLE ROCK;IGNEOUS:VOLCANIC:MAFIC;DIABASE;;;;;;;;;;;;;;;;;19,88;wt%;Unknown;;;;;;;;;;;;;;;;;;;;;;2,6;wt%;Unknown;;;;;;;;;;;;;;;;;;;;;;;;;;;;;;;16;ppm;Unknown;62;ppm;Unknown;148;ppm;Unknown;;;;103;ppm;Unknown;;;;0,12;ppm;AAS;0,02;ppm;INAA;;;;;;;;;;;;;;;;;;;;;;;;;;;;;;;;;;;;;;;;;;;;;;;;;;;;;;;;;;;;;;;;;;;;;;;;;;;;;;;;;;;;;;;;;;;;;;;;;;;;;;;;;;;;;;;;;;;;;;;;;18,4;ppm;INAA;40;ppm;INAA;;;;;;;5,5;ppm;INAA;1,8;ppm;INAA;;;;0,94;ppm;INAA;;;;;;;;;;;;;3,3;ppm;INAA;0,49;ppm;INAA;;;;0,05;ppm;INAA;0,34;ppm;INAA;;;;;;;;;;;;;;;;0,12;ppm;AAS;;;;;;;;;;22;ppm;ES;297;ppm;Unknown;;;;;;;;;;;;;62;ppm;Unknown;7,8;ppm;Unknown;2,1;ppm;INAA;148;ppm;Unknown;;;;;;;4,5;ppm;INAA;;;;;;;;;;;;;;;;;;;;;;18;ppm;ICP;16;ppm;Unknown;;;;;;;;;;100;ppm;Unknown;16;ppm;Unknown;46;ppm;Unknown;;;;;;;;;;0,02;ppm;INAA;;;;43;ppm;INAA;;;;226;ppm;Unknown;0,99;ppm;INAA;4,1;ppm;INAA;;;;;;;;;;;;;;;;36;ppm;Unknown;103;ppm;Unknown;151;ppm;Unknown;;;;;;;;;;;;;;;;;;;;;;;;;;;;;;;;;;;;;;;;;;;;;;;;
GROSCAMP-W-237184;;GROSSMAN-CAMP;GROSSMAN, 1991;39,859;-77,2705;0,001;;;CONTINENTAL_RIFT;;;;"AAS; ES; ICP; INAA; Unknown";WHOLE ROCK;IGNEOUS:VOLCANIC:MAFIC;DIABASE;;;;;;;;;;;;;;;;;19,45;wt%;Unknown;;;;;;;;;;;;;;;;;;;;;;2,7;wt%;Unknown;;;;;;;;;;;;;;;;;;;;;;;;;;;;;;;16;ppm;Unknown;56;ppm;Unknown;219;ppm;Unknown;;;;91;ppm;Unknown;;;;0,11;ppm;AAS;0,04;ppm;INAA;;;;;;;;;;;;;;;;;;;;;;;;;;;;;;;;;;;;;;;;;;;;;;;;;;;;;;;;;;;;;;;;;;;;;;;;;;;;;;;;;;;;;;;;;;;;;;;;;;;;;;;;;;;;;;;;;;;;;;;;;22,7;ppm;INAA;46;ppm;INAA;;;;;;;6,5;ppm;INAA;1,9;ppm;INAA;;;;1,1;ppm;INAA;;;;;;;;;;;;;3,8;ppm;INAA;0,55;ppm;INAA;;;;0,06;ppm;INAA;0,28;ppm;INAA;;;;;;;;;;;;;;;;0,11;ppm;AAS;;;;;;;;;;26;ppm;ES;330;ppm;Unknown;;;;;;;;;;;;;56;ppm;Unknown;4,8;ppm;Unknown;1,7;ppm;INAA;219;ppm;Unknown;;;;;;;5,7;ppm;INAA;;;;;;;;;;;;;;;;;;;;;;23;ppm;ICP;16;ppm;Unknown;;;;;;;;;;130;ppm;Unknown;19;ppm;Unknown;37;ppm;Unknown;;;;;;;;;;0,04;ppm;INAA;;;;41;ppm;INAA;;;;210;ppm;Unknown;1,5;ppm;INAA;5,1;ppm;INAA;;;;;;;1,5;ppm;INAA;;;;;;;33;ppm;Unknown;91;ppm;Unknown;181;ppm;Unknown;;;;;;;;;;;;;;;;;;;;;;;;;;;;;;;;;;;;;;;;;;;;;;;;
GROSCAMP-W-237185;;GROSSMAN-CAMP;GROSSMAN, 1991;39,859;-77,2705;0,001;;;CONTINENTAL_RIFT;;;;"AAS; ES; ICP; INAA; Unknown";WHOLE ROCK;IGNEOUS:VOLCANIC:MAFIC;DIABASE;;;;;;;;;;;;;;;;;18,59;wt%;Unknown;;;;;;;;;;;;;;;;;;;;;;2,66;wt%;Unknown;;;;;;;;;;;;;;;;;;;;;;;;;;;;;;;17;ppm;Unknown;54;ppm;Unknown;170;ppm;Unknown;;;;125;ppm;Unknown;;;;0,12;ppm;AAS;0,04;ppm;INAA;;;;;;;;;;;;;;;;;;;;;;;;;;;;;;;;;;;;;;;;;;;;;;;;;;;;;;;;;;;;;;;;;;;;;;;;;;;;;;;;;;;;;;;;;;;;;;;;;;;;;;;;;;;;;;;;;;;;;;;;;22,3;ppm;INAA;46;ppm;INAA;;;;29;ppm;INAA;6,4;ppm;INAA;1,84;ppm;INAA;;;;1,2;ppm;INAA;;;;;;;;;;;;;3,7;ppm;INAA;0,57;ppm;INAA;;;;0,06;ppm;INAA;0,3;ppm;INAA;;;;;;;;;;;;;;;;0,12;ppm;AAS;;;;;;;;;;36;ppm;ES;330;ppm;Unknown;;;;;;;;;;;;;54;ppm;Unknown;29;ppm;Unknown;2,6;ppm;INAA;170;ppm;Unknown;;;;;;;5,1;ppm;INAA;;;;;;;;;;;;;;;;;;;;;;19;ppm;ICP;17;ppm;Unknown;;;;;;;;;;41;ppm;Unknown;4,7;ppm;Unknown;58;ppm;Unknown;;;;;;;;;;0,04;ppm;INAA;;;;39;ppm;INAA;;;;228;ppm;Unknown;1,2;ppm;INAA;4,8;ppm;INAA;;;;;;;0,91;ppm;INAA;;;;;;;47;ppm;Unknown;125;ppm;Unknown;183;ppm;Unknown;;;;;;;;;;;;;;;;;;;;;;;;;;;;;;;;;;;;;;;;;;;;;;;;
GROSCAMP-W-237186;;GROSSMAN-CAMP;GROSSMAN, 1991;39,859;-77,2705;0,001;;;CONTINENTAL_RIFT;;;;"AAS; ES; ICP; INAA; Unknown";WHOLE ROCK;IGNEOUS:VOLCANIC:MAFIC;DIABASE;;;;;;;;;;;;;;;;;19,02;wt%;Unknown;;;;;;;;;;;;;;;;;;;;;;2,64;wt%;Unknown;;;;;;;;;;;;;;;;;;;;;;;;;;;;;;;12;ppm;Unknown;52;ppm;Unknown;276;ppm;Unknown;;;;120;ppm;Unknown;;;;0,1;ppm;AAS;0,04;ppm;INAA;;;;;;;;;;;;;;;;;;;;;;;;;;;;;;;;;;;;;;;;;;;;;;;;;;;;;;;;;;;;;;;;;;;;;;;;;;;;;;;;;;;;;;;;;;;;;;;;;;;;;;;;;;;;;;;;;;;;;;;;;24,3;ppm;INAA;51;ppm;INAA;;;;33;ppm;INAA;7;ppm;INAA;2,1;ppm;INAA;;;;1,2;ppm;INAA;;;;;;;;;;;;;4;ppm;INAA;0,58;ppm;INAA;;;;0,06;ppm;INAA;0,28;ppm;INAA;;;;;;;;;;;;;;;;0,1;ppm;AAS;;;;;;;;;;29;ppm;ES;360;ppm;Unknown;;;;;;;;;;;;;52;ppm;Unknown;;;;2,7;ppm;INAA;276;ppm;Unknown;;;;;;;5,7;ppm;INAA;;;;;;;;;;;;;;;;;;;;;;21;ppm;ICP;12;ppm;Unknown;;;;;;;;;;100;ppm;Unknown;21;ppm;Unknown;50;ppm;Unknown;;;;;;;;;;0,04;ppm;INAA;;;;39;ppm;INAA;;;;217;ppm;Unknown;1,4;ppm;INAA;5,5;ppm;INAA;;;;;;;0,93;ppm;INAA;;;;;;;40;ppm;Unknown;120;ppm;Unknown;210;ppm;Unknown;;;;;;;;;;;;;;;;;;;;;;;;;;;;;;;;;;;;;;;;;;;;;;;;
GROSCAMP-W-237187;;GROSSMAN-CAMP;GROSSMAN, 1991;39,859;-77,2705;0,001;;;CONTINENTAL_RIFT;;;;"AAS; ES; ICP; INAA; Unknown";WHOLE ROCK;IGNEOUS:VOLCANIC:MAFIC;DIABASE;;;;;;;;;;;;;;;;;19,88;wt%;Unknown;;;;;;;;;;;;;;;;;;;;;;2,71;wt%;Unknown;;;;;;;;;;;;;;;;;;;;;;;;;;;;;;;14;ppm;Unknown;55;ppm;Unknown;198;ppm;Unknown;;;;97;ppm;Unknown;;;;0,068;ppm;AAS;0,04;ppm;INAA;;;;;;;;;;;;;;;;;;;;;;;;;;;;;;;;;;;;;;;;;;;;;;;;;;;;;;;;;;;;;;;;;;;;;;;;;;;;;;;;;;;;;;;;;;;;;;;;;;;;;;;;;;;;;;;;;;;;;;;;;25,1;ppm;INAA;53;ppm;INAA;;;;34;ppm;INAA;7,4;ppm;INAA;2;ppm;INAA;;;;1,3;ppm;INAA;;;;;;;;;;;;;4,3;ppm;INAA;0,63;ppm;INAA;;;;0,06;ppm;INAA;0,28;ppm;INAA;;;;;;;;;;;;;;;;0,068;ppm;AAS;;;;;;;;;;26;ppm;ES;330;ppm;Unknown;;;;;;;;;;;;;55;ppm;Unknown;;;;1,9;ppm;INAA;198;ppm;Unknown;;;;;;;6,2;ppm;INAA;;;;;;;;;;;;;;;;;;;;;;23;ppm;ICP;14;ppm;Unknown;;;;;;;;;;71;ppm;Unknown;16;ppm;Unknown;46;ppm;Unknown;;;;;;;;;;0,04;ppm;INAA;;;;40;ppm;INAA;;;;213;ppm;Unknown;1,5;ppm;INAA;5,5;ppm;INAA;;;;;;;1,5;ppm;INAA;;;;;;;45;ppm;Unknown;97;ppm;Unknown;219;ppm;Unknown;;;;;;;;;;;;;;;;;;;;;;;;;;;;;;;;;;;;;;;;;;;;;;;;
GROSCAMP-W-237188;;GROSSMAN-CAMP;GROSSMAN, 1991;39,859;-77,2705;0,001;;;CONTINENTAL_RIFT;;;;"AAS; ES; ICP; INAA; Unknown";WHOLE ROCK;IGNEOUS:VOLCANIC:MAFIC;DIABASE;;;;;;;;;;;;;;;;;15,59;wt%;Unknown;;;;;;;;;;;;;;;;;;;;;;2,86;wt%;Unknown;;;;;;;;;;;;;;;;;;;;;;;;;;;;;;;29;ppm;Unknown;48;ppm;Unknown;196;ppm;Unknown;;;;90;ppm;Unknown;;;;0,13;ppm;AAS;0,04;ppm;INAA;;;;;;;;;;;;;;;;;;;;;;;;;;;;;;;;;;;;;;;;;;;;;;;;;;;;;;;;;;;;;;;;;;;;;;;;;;;;;;;;;;;;;;;;;;;;;;;;;;;;;;;;;;;;;;;;;;;;;;;;;20,6;ppm;INAA;42;ppm;INAA;;;;;;;5,9;ppm;INAA;1,6;ppm;INAA;;;;0,95;ppm;INAA;;;;;;;;;;;;;3,6;ppm;INAA;0,49;ppm;INAA;;;;0,05;ppm;INAA;0,02;ppm;INAA;;;;;;;;;;;;;;;;0,13;ppm;AAS;;;;;;;;;;9;ppm;ES;286;ppm;Unknown;;;;;;;;;;;;;48;ppm;Unknown;6,2;ppm;Unknown;2,3;ppm;INAA;196;ppm;Unknown;;;;;;;4,9;ppm;INAA;;;;;;;;;;;;;;;;;;;;;;16;ppm;ICP;29;ppm;Unknown;;;;;;;;;;11;ppm;Unknown;4;ppm;Unknown;37;ppm;Unknown;;;;;;;;;;0,04;ppm;INAA;;;;34;ppm;INAA;;;;215;ppm;Unknown;1;ppm;INAA;4,7;ppm;INAA;;;;;;;0,98;ppm;INAA;;;;;;;36;ppm;Unknown;90;ppm;Unknown;168;ppm;Unknown;;;;;;;;;;;;;;;;;;;;;;;;;;;;;;;;;;;;;;;;;;;;;;;;