SAMPLE ID;IGSN;EXPEDITION ID;REFERENCES;LATITUDE;LONGITUDE;LOC PREC;MIN ELEVATION;MAX ELEVATION;TECTONIC SETTING;MIN AGE;AGE;MAX AGE;METHOD;ANALYZED MATERIAL;ROCK TYPE;ROCK NAME;MINERAL;SIO2;SIO2 Units;SIO2 Method;TIO2;TIO2 Units;TIO2 Method;AL2O3;AL2O3 Units;AL2O3 Method;CR2O3;CR2O3 Units;CR2O3 Method;FE2O3;FE2O3 Units;FE2O3 Method;FE2O3T;FE2O3T Units;FE2O3T Method;FEO;FEO Units;FEO Method;FEOT;FEOT Units;FEOT Method;NIO;NIO Units;NIO Method;MNO;MNO Units;MNO Method;MGO;MGO Units;MGO Method;CAO;CAO Units;CAO Method;SRO;SRO Units;SRO Method;NA2O;NA2O Units;NA2O Method;K2O;K2O Units;K2O Method;P2O5;P2O5 Units;P2O5 Method;BAO;BAO Units;BAO Method;LOI;LOI Units;LOI Method;H2O;H2O Units;H2O Method;H2O_M;H2O_M Units;H2O_M Method;H2O_P;H2O_P Units;H2O_P Method;SO3;SO3 Units;SO3 Method;COO;COO Units;COO Method;MN;MN Units;MN Method;NI;NI Units;NI Method;CO;CO Units;CO Method;CU;CU Units;CU Method;CD;CD Units;CD Method;ZN;ZN Units;ZN Method;AS;AS Units;AS Method;AG;AG Units;AG Method;S;S Units;S Method;ZRO2;ZRO2 Units;ZRO2 Method;AL;AL Units;AL Method;CA;CA Units;CA Method;SR87_SR86;SR87_SR86 Units;SR87_SR86 Method;SR87_SR86_INI;SR87_SR86_INI Units;SR87_SR86_INI Method;RB87_SR86;RB87_SR86 Units;RB87_SR86 Method;ND143_ND144;ND143_ND144 Units;ND143_ND144 Method;ND143_ND144_INI;ND143_ND144_INI Units;ND143_ND144_INI Method;SM147_ND144;SM147_ND144 Units;SM147_ND144 Method;E_ND;E_ND Units;E_ND Method;E_ND_INI;E_ND_INI Units;E_ND_INI Method;PB204_PB206;PB204_PB206 Units;PB204_PB206 Method;PB206_PB204;PB206_PB204 Units;PB206_PB204 Method;PB206_PB204_INI;PB206_PB204_INI Units;PB206_PB204_INI Method;PB207_PB204;PB207_PB204 Units;PB207_PB204 Method;PB207_PB204_INI;PB207_PB204_INI Units;PB207_PB204_INI Method;PB207_PB206;PB207_PB206 Units;PB207_PB206 Method;PB208_PB204;PB208_PB204 Units;PB208_PB204 Method;PB208_PB204_INI;PB208_PB204_INI Units;PB208_PB204_INI Method;PB208_PB206;PB208_PB206 Units;PB208_PB206 Method;HF176_HF177;HF176_HF177 Units;HF176_HF177 Method;RE187_OS188;RE187_OS188 Units;RE187_OS188 Method;OS187_OS188;OS187_OS188 Units;OS187_OS188 Method;OS187_OS188_INI;OS187_OS188_INI Units;OS187_OS188_INI Method;G_OS;G_OS Units;G_OS Method;G_OS_INI;G_OS_INI Units;G_OS_INI Method;ND143_ND144_INI;ND143_ND144_INI Units;ND143_ND144_INI Method;PB206_PB204_INI;PB206_PB204_INI Units;PB206_PB204_INI Method;PB207_PB204_INI;PB207_PB204_INI Units;PB207_PB204_INI Method;PB208_PB204_INI;PB208_PB204_INI Units;PB208_PB204_INI Method;SR87_SR86_INI;SR87_SR86_INI Units;SR87_SR86_INI Method;HE;HE Units;HE Method;HE3;HE3 Units;HE3 Method;HE3_HE4_R_RA;HE3_HE4_R_RA Units;HE3_HE4_R_RA Method;AR36;AR36 Units;AR36 Method;AR40;AR40 Units;AR40 Method;AR40_AR36;AR40_AR36 Units;AR40_AR36 Method;NE20;NE20 Units;NE20 Method;NE20_NE22;NE20_NE22 Units;NE20_NE22 Method;NE21_NE22;NE21_NE22 Units;NE21_NE22 Method;LA;LA Units;LA Method;CE;CE Units;CE Method;PR;PR Units;PR Method;ND;ND Units;ND Method;SM;SM Units;SM Method;EU;EU Units;EU Method;GD;GD Units;GD Method;TB;TB Units;TB Method;DY;DY Units;DY Method;HO;HO Units;HO Method;ER;ER Units;ER Method;TM;TM Units;TM Method;YB;YB Units;YB Method;LU;LU Units;LU Method;CO2;CO2 Units;CO2 Method;F;F Units;F Method;CL;CL Units;CL Method;U238_PB204;U238_PB204 Units;U238_PB204 Method;TH230_TH232;TH230_TH232 Units;TH230_TH232 Method;RA226_ACTIVITY;RA226_ACTIVITY Units;RA226_ACTIVITY Method;PB210_RA226;PB210_RA226 Units;PB210_RA226 Method;PB210_ACTIVITY;PB210_ACTIVITY Units;PB210_ACTIVITY Method;AG;AG Units;AG Method;AL;AL Units;AL Method;AS;AS Units;AS Method;AU;AU Units;AU Method;B;B Units;B Method;BA;BA Units;BA Method;BE;BE Units;BE Method;BI;BI Units;BI Method;CA;CA Units;CA Method;CD;CD Units;CD Method;CO;CO Units;CO Method;CR;CR Units;CR Method;CS;CS Units;CS Method;CU;CU Units;CU Method;GA;GA Units;GA Method;GER;GER Units;GER Method;HF;HF Units;HF Method;INDIUM;INDIUM Units;INDIUM Method;IR;IR Units;IR Method;K;K Units;K Method;LI;LI Units;LI Method;MN;MN Units;MN Method;MO;MO Units;MO Method;NA;NA Units;NA Method;NB;NB Units;NB Method;NI;NI Units;NI Method;OS;OS Units;OS Method;P;P Units;P Method;PB;PB Units;PB Method;PD;PD Units;PD Method;PT;PT Units;PT Method;RB;RB Units;RB Method;RE;RE Units;RE Method;RH;RH Units;RH Method;RU;RU Units;RU Method;S;S Units;S Method;SB;SB Units;SB Method;SC;SC Units;SC Method;SN;SN Units;SN Method;SR;SR Units;SR Method;TA;TA Units;TA Method;TH;TH Units;TH Method;TI;TI Units;TI Method;TL;TL Units;TL Method;U;U Units;U Method;V;V Units;V Method;W;W Units;W Method;Y;Y Units;Y Method;ZN;ZN Units;ZN Method;ZR;ZR Units;ZR Method;DELTA_O18;DELTA_O18 Units;DELTA_O18 Method;DELTA_C13;DELTA_C13 Units;DELTA_C13 Method;DELTA_MO98;DELTA_MO98 Units;DELTA_MO98 Method;DELTA_ZN66;DELTA_ZN66 Units;DELTA_ZN66 Method;DELTA_ZN68;DELTA_ZN68 Units;DELTA_ZN68 Method;OS188;OS188 Units;OS188 Method;FE3P_FET;FE3P_FET Units;FE3P_FET Method;TI;TI Units;TI Method;AS;AS Units;AS Method;AS;AS Units;AS Method;GER;GER Units;GER Method;H2O_M;H2O_M Units;H2O_M Method;H2O_P;H2O_P Units;H2O_P Method;H2O_M;H2O_M Units;H2O_M Method;H2O_P;H2O_P Units;H2O_P Method;INDIUM;INDIUM Units;INDIUM Method
GROSCAMP-W-243886;;GROSSMAN-CAMP;GROSSMAN, 1991;36,061;-78,968;0,001;;;CONTINENTAL_RIFT;;;;"AAS; COL; ES; ICP; INAA; TITR; Unknown";WHOLE ROCK;IGNEOUS:VOLCANIC:MAFIC;DIABASE;;47,3;wt%;COL;0,61;wt%;COL;16,2;wt%;COL;;;;2,55;wt%;Unknown;;;;8,1;wt%;TITR;;;;;;;0,18;wt%;AAS;11,1;wt%;AAS;10,9;wt%;Unknown;;;;1,9;wt%;Unknown;0,25;wt%;AAS;0,1;wt%;COL;;;;;;;;;;0,11;wt%;TITR;1;wt%;TITR;;;;;;;;;;296;ppm;Unknown;61;ppm;Unknown;96;ppm;Unknown;;;;60;ppm;Unknown;;;;0,029;ppm;AAS;0,09;ppm;INAA;;;;;;;;;;;;;;;;;;;;;;;;;;;;;;;;;;;;;;;;;;;;;;;;;;;;;;;;;;;;;;;;;;;;;;;;;;;;;;;;;;;;;;;;;;;;;;;;;;;;;;;;;;;;;;;;;;;;;;;;;4,7;ppm;INAA;9,9;ppm;INAA;;;;;;;1,84;ppm;INAA;0,69;ppm;INAA;;;;0,49;ppm;INAA;;;;;;;;;;;;;2,5;ppm;INAA;0,39;ppm;INAA;0,05;ppm;TITR;0,01;ppm;INAA;;;;;;;;;;;;;;;;;;;0,029;ppm;AAS;;;;;;;;;;6,9;ppm;ES;171;ppm;Unknown;;;;;;;;;;;;;61;ppm;Unknown;480;ppm;Unknown;;;;96;ppm;Unknown;16;ppm;ICP;;;;1,2;ppm;INAA;;;;;;;;;;;;;;;;;;;;;;1,8;ppm;ICP;296;ppm;Unknown;;;;;;;;;;4,7;ppm;Unknown;9,4;ppm;Unknown;6;ppm;Unknown;;;;;;;;;;0,09;ppm;INAA;;;;37;ppm;INAA;;;;156;ppm;Unknown;;;;0,44;ppm;INAA;;;;;;;;;;;;;;;;21;ppm;Unknown;60;ppm;Unknown;59;ppm;Unknown;;;;;;;;;;;;;;;;;;;;;;;;;;;;;;;;;;0,11;wt%;TITR;1;wt%;TITR;0,11;wt%;TITR;1;wt%;TITR;;;
GROSCAMP-W-243887;;GROSSMAN-CAMP;GROSSMAN, 1991;36,1125;-78,6875;0,001;;;CONTINENTAL_RIFT;;;;"AAS; COL; ES; ICP; ICPMS; INAA; TITR; Unknown";WHOLE ROCK;IGNEOUS:VOLCANIC:MAFIC;DIABASE;;50,8;wt%;COL;0,65;wt%;COL;15,8;wt%;COL;;;;3;wt%;Unknown;;;;7;wt%;TITR;;;;;;;0,18;wt%;AAS;7,69;wt%;AAS;12;wt%;Unknown;;;;2,16;wt%;Unknown;0,4;wt%;AAS;0,12;wt%;COL;;;;;;;;;;0,25;wt%;TITR;0,59;wt%;TITR;;;;;;;;;;101;ppm;Unknown;43;ppm;Unknown;85;ppm;Unknown;;;;62;ppm;Unknown;;;;0,029;ppm;AAS;0,08;ppm;INAA;;;;;;;;;;;;;;;;;;;;;;;;;;;;;;;;;;;;;;;;;;;;;;;;;;;;;;;;;;;;;;;;;;;;;;;;;;;;;;;;;;;;;;;;;;;;;;;;;;;;;;;;;;;;;;;;;;;;;;;;;6;ppm;INAA;14;ppm;INAA;;;;7,8;ppm;INAA;2,29;ppm;INAA;0,75;ppm;INAA;;;;0,56;ppm;INAA;;;;;;;;;;;;;3;ppm;INAA;0,44;ppm;INAA;0,04;ppm;TITR;0,01;ppm;INAA;;;;;;;;;;;;;;;;;;;0,029;ppm;AAS;;;;;;;;;;5,8;ppm;ES;126;ppm;Unknown;;;;;;;;;;;;;43;ppm;Unknown;330;ppm;Unknown;0,61;ppm;INAA;85;ppm;Unknown;17;ppm;ICP;;;;1,6;ppm;INAA;;;;;;;;;;;;;;;;;;;;;;2,6;ppm;ICP;101;ppm;Unknown;;;;;;;;;;11;ppm;Unknown;11;ppm;Unknown;5;ppm;Unknown;;;;0,6;ppm;Unknown;0,6;ppm;ICPMS;0,08;ppm;INAA;;;;45;ppm;INAA;;;;151;ppm;Unknown;0,21;ppm;INAA;0,73;ppm;INAA;;;;;;;;;;;;;;;;24;ppm;Unknown;62;ppm;Unknown;68;ppm;Unknown;;;;;;;;;;;;;;;;;;;;;;;;;;;;;;;;;;0,25;wt%;TITR;0,59;wt%;TITR;0,25;wt%;TITR;0,59;wt%;TITR;;;
GROSCAMP-W-243888;;GROSSMAN-CAMP;GROSSMAN, 1991;36,1125;-78,6903;0,001;;;CONTINENTAL_RIFT;;;;"AAS; COL; ES; ICP; INAA; TITR; Unknown";WHOLE ROCK;IGNEOUS:VOLCANIC:MAFIC;DIABASE;;49;wt%;COL;0,41;wt%;COL;17;wt%;COL;;;;2,23;wt%;Unknown;;;;6,2;wt%;TITR;;;;;;;0,15;wt%;AAS;10,1;wt%;AAS;12,1;wt%;Unknown;;;;1,93;wt%;Unknown;0,27;wt%;AAS;0,09;wt%;COL;;;;;;;;;;0,18;wt%;TITR;0,44;wt%;TITR;;;;;;;;;;157;ppm;Unknown;48;ppm;Unknown;50;ppm;Unknown;;;;46;ppm;Unknown;;;;0,017;ppm;AAS;0,01;ppm;INAA;;;;;;;;;;;;;;;;;;;;;;;;;;;;;;;;;;;;;;;;;;;;;;;;;;;;;;;;;;;;;;;;;;;;;;;;;;;;;;;;;;;;;;;;;;;;;;;;;;;;;;;;;;;;;;;;;;;;;;;;;4;ppm;INAA;9,6;ppm;INAA;;;;;;;1,5;ppm;INAA;0,54;ppm;INAA;;;;0,4;ppm;INAA;;;;;;;;;;;;;1,9;ppm;INAA;0,27;ppm;INAA;0,01;ppm;TITR;0,01;ppm;INAA;;;;;;;;;;;;;;;;;;;0,017;ppm;AAS;;;;;;;;;;6,6;ppm;ES;86;ppm;Unknown;;;;;;;;;;;;;48;ppm;Unknown;580;ppm;Unknown;;;;50;ppm;Unknown;16;ppm;ICP;;;;0,9;ppm;INAA;;;;;;;;;;;;;;;;;;;;;;1,5;ppm;ICP;157;ppm;Unknown;;;;;;;;;;5,2;ppm;Unknown;5,2;ppm;Unknown;8;ppm;Unknown;;;;;;;;;;0,01;ppm;INAA;;;;36;ppm;INAA;;;;159;ppm;Unknown;;;;0,51;ppm;INAA;;;;;;;;;;;;;;;;16;ppm;Unknown;46;ppm;Unknown;56;ppm;Unknown;;;;;;;;;;;;;;;;;;;;;;;;;;;;;;;;;;0,18;wt%;TITR;0,44;wt%;TITR;0,18;wt%;TITR;0,44;wt%;TITR;;;
GROSCAMP-W-243889;;GROSSMAN-CAMP;GROSSMAN, 1991;36,1125;-78,7069;0,001;;;CONTINENTAL_RIFT;;;;"AAS; COL; ES; ICP; INAA; TITR; Unknown";WHOLE ROCK;IGNEOUS:VOLCANIC:MAFIC;DIABASE;;50,6;wt%;COL;0,58;wt%;COL;16,2;wt%;COL;;;;2,44;wt%;Unknown;;;;6,8;wt%;TITR;;;;;;;0,18;wt%;AAS;7,63;wt%;AAS;12,4;wt%;Unknown;;;;2,16;wt%;Unknown;0,37;wt%;AAS;0,11;wt%;COL;;;;;;;;;;0,22;wt%;TITR;0,65;wt%;TITR;;;;;;;;;;88;ppm;Unknown;41;ppm;Unknown;70;ppm;Unknown;;;;56;ppm;Unknown;;;;0,025;ppm;AAS;0,02;ppm;INAA;;;;;;;;;;;;;;;;;;;;;;;;;;;;;;;;;;;;;;;;;;;;;;;;;;;;;;;;;;;;;;;;;;;;;;;;;;;;;;;;;;;;;;;;;;;;;;;;;;;;;;;;;;;;;;;;;;;;;;;;;5;ppm;INAA;12;ppm;INAA;;;;;;;2,01;ppm;INAA;0,68;ppm;INAA;;;;0,5;ppm;INAA;;;;;;;;;;;;;2,6;ppm;INAA;0,39;ppm;INAA;0,02;ppm;TITR;0,02;ppm;INAA;;;;;;;;;;;;;;;;;;;0,025;ppm;AAS;;;;;;;;;;6,6;ppm;ES;119;ppm;Unknown;;;;;;;;;;;;;41;ppm;Unknown;500;ppm;Unknown;;;;70;ppm;Unknown;17;ppm;ICP;;;;1,5;ppm;INAA;;;;;;;;;;;;;;;;;;;;;;2;ppm;ICP;88;ppm;Unknown;;;;;;;;;;11;ppm;Unknown;12;ppm;Unknown;14;ppm;Unknown;;;;;;;;;;0,02;ppm;INAA;;;;46;ppm;INAA;;;;184;ppm;Unknown;0,17;ppm;INAA;0,52;ppm;INAA;;;;;;;;;;;;;;;;20;ppm;Unknown;56;ppm;Unknown;64;ppm;Unknown;;;;;;;;;;;;;;;;;;;;;;;;;;;;;;;;;;0,22;wt%;TITR;0,65;wt%;TITR;0,22;wt%;TITR;0,65;wt%;TITR;;;
GROSCAMP-W-243890;;GROSSMAN-CAMP;GROSSMAN, 1991;36,1708;-78,65;0,001;;;CONTINENTAL_RIFT;;;;"AAS; COL; ES; ICP; INAA; TITR; Unknown";WHOLE ROCK;IGNEOUS:VOLCANIC:MAFIC;DIABASE;;51,3;wt%;COL;0,74;wt%;COL;15,5;wt%;COL;;;;2,87;wt%;Unknown;;;;7,2;wt%;TITR;;;;;;;0,19;wt%;AAS;6,77;wt%;AAS;11,6;wt%;Unknown;;;;2,29;wt%;Unknown;0,47;wt%;AAS;0,15;wt%;COL;;;;;;;;;;0,29;wt%;TITR;0,51;wt%;TITR;;;;;;;;;;66;ppm;Unknown;40;ppm;Unknown;93;ppm;Unknown;;;;60;ppm;Unknown;;;;0,035;ppm;AAS;0,04;ppm;INAA;;;;;;;;;;;;;;;;;;;;;;;;;;;;;;;;;;;;;;;;;;;;;;;;;;;;;;;;;;;;;;;;;;;;;;;;;;;;;;;;;;;;;;;;;;;;;;;;;;;;;;;;;;;;;;;;;;;;;;;;;7,2;ppm;INAA;15;ppm;INAA;;;;9,4;ppm;INAA;2,6;ppm;INAA;0,82;ppm;INAA;;;;0,6;ppm;INAA;;;;;;;;;;;;;3,3;ppm;INAA;0,47;ppm;INAA;0,01;ppm;TITR;0,01;ppm;INAA;0,01;ppm;INAA;;;;;;;;;;;;;;;;0,035;ppm;AAS;;;;;;;;;;6,6;ppm;ES;152;ppm;Unknown;;;;;;;;;;;;;40;ppm;Unknown;230;ppm;Unknown;;;;93;ppm;Unknown;19;ppm;ICP;;;;1,7;ppm;INAA;;;;;;;;;;;;;;;;;;;;;;2,5;ppm;ICP;66;ppm;Unknown;;;;;;;;;;8,3;ppm;Unknown;7,4;ppm;Unknown;6;ppm;Unknown;;;;;;;;;;0,04;ppm;INAA;;;;46;ppm;INAA;;;;172;ppm;Unknown;0,17;ppm;INAA;0,71;ppm;INAA;;;;;;;0,42;ppm;INAA;;;;;;;27;ppm;Unknown;60;ppm;Unknown;73;ppm;Unknown;;;;;;;;;;;;;;;;;;;;;;;;;;;;;;;;;;0,29;wt%;TITR;0,51;wt%;TITR;0,29;wt%;TITR;0,51;wt%;TITR;;;
GROSCAMP-W-243891;;GROSSMAN-CAMP;GROSSMAN, 1991;36,1708;-78,65;0,001;;;CONTINENTAL_RIFT;;;;"AAS; COL; ES; ICP; INAA; TITR; Unknown";WHOLE ROCK;IGNEOUS:VOLCANIC:MAFIC;DIABASE;;59;wt%;COL;0,74;wt%;COL;24,6;wt%;COL;;;;3,22;wt%;Unknown;;;;3,1;wt%;TITR;;;;;;;0,07;wt%;AAS;1,49;wt%;AAS;1,56;wt%;Unknown;;;;1,82;wt%;Unknown;3,58;wt%;AAS;0,11;wt%;COL;;;;;;;;;;0,1;wt%;TITR;0,75;wt%;TITR;;;;;;;;;;28;ppm;Unknown;16,4;ppm;Unknown;38;ppm;Unknown;;;;124;ppm;Unknown;1,8;ppm;INAA;0,11;ppm;AAS;0,03;ppm;INAA;;;;;;;;;;;;;;;;;;;;;;;;;;;;;;;;;;;;;;;;;;;;;;;;;;;;;;;;;;;;;;;;;;;;;;;;;;;;;;;;;;;;;;;;;;;;;;;;;;;;;;;;;;;;;;;;;;;;;;;;;36;ppm;INAA;66;ppm;INAA;;;;30;ppm;INAA;6,4;ppm;INAA;1,4;ppm;INAA;;;;0,9;ppm;INAA;;;;;;;;;;;;;2,8;ppm;INAA;0,39;ppm;INAA;;;;0,05;ppm;INAA;;;;;;;;;;;;;;;;;;;0,11;ppm;AAS;;;;1,8;ppm;INAA;;;;8,4;ppm;ES;700;ppm;Unknown;;;;;;;;;;;;;16,4;ppm;Unknown;51;ppm;Unknown;13,6;ppm;INAA;38;ppm;Unknown;32;ppm;ICP;;;;5,2;ppm;INAA;;;;;;;;;;;;;;;;;;;;;;20;ppm;ICP;28;ppm;Unknown;;;;;;;;;;;;;;;;244;ppm;Unknown;;;;;;;;;;0,03;ppm;INAA;;;;12,8;ppm;INAA;;;;246;ppm;Unknown;2,39;ppm;INAA;16,8;ppm;INAA;;;;;;;6,6;ppm;INAA;;;;;;;18;ppm;Unknown;124;ppm;Unknown;177;ppm;Unknown;;;;;;;;;;;;;;;;;;;;;;;;;1,8;ppm;INAA;1,8;ppm;INAA;;;;0,1;wt%;TITR;0,75;wt%;TITR;0,1;wt%;TITR;0,75;wt%;TITR;;;
GROSCAMP-W-243895;;GROSSMAN-CAMP;GROSSMAN, 1991;37,4;-78,4;0,001;;;CONTINENTAL_RIFT;;;;"AAS; COL; ES; ICP; INAA; TITR; Unknown";WHOLE ROCK;IGNEOUS:VOLCANIC:MAFIC;DIABASE;;52,7;wt%;COL;1,13;wt%;COL;13,7;wt%;COL;;;;2,85;wt%;Unknown;;;;10,2;wt%;TITR;;;;;;;0,22;wt%;AAS;5,44;wt%;AAS;9,3;wt%;Unknown;;;;2,57;wt%;Unknown;0,78;wt%;AAS;0,15;wt%;COL;;;;;;;;;;0,2;wt%;TITR;0,9;wt%;TITR;;;;;;;;;;35;ppm;Unknown;49;ppm;Unknown;67;ppm;Unknown;;;;98;ppm;Unknown;;;;0,023;ppm;AAS;0,1;ppm;INAA;;;;;;;;;;;;;;;;;;;;;;;;;;;;;;;;;;;;;;;;;;;;;;;;;;;;;;;;;;;;;;;;;;;;;;;;;;;;;;;;;;;;;;;;;;;;;;;;;;;;;;;;;;;;;;;;;;;;;;;;;10,3;ppm;INAA;21;ppm;INAA;;;;12;ppm;INAA;3,4;ppm;INAA;1,1;ppm;INAA;;;;0,76;ppm;INAA;;;;;;;;;;;;;3,3;ppm;INAA;0,51;ppm;INAA;;;;0,03;ppm;INAA;;;;;;;;;;;;;;;;;;;0,023;ppm;AAS;;;;;;;;;;13;ppm;ES;240;ppm;Unknown;;;;;;;;;;;;;49;ppm;Unknown;23;ppm;Unknown;0,58;ppm;INAA;67;ppm;Unknown;23;ppm;ICP;;;;2,3;ppm;INAA;;;;;;;;;;;;;;;;;;;;;;4,6;ppm;ICP;35;ppm;Unknown;;;;;;;;;;1,5;ppm;Unknown;1,9;ppm;Unknown;29;ppm;Unknown;;;;;;;;;;0,1;ppm;INAA;0,32;ppm;INAA;47;ppm;INAA;;;;226;ppm;Unknown;0,35;ppm;INAA;2,5;ppm;INAA;;;;;;;0,69;ppm;INAA;;;;;;;29;ppm;Unknown;98;ppm;Unknown;101;ppm;Unknown;;;;;;;;;;;;;;;;;;;;;;;;;;;;;;;;;;0,2;wt%;TITR;0,9;wt%;TITR;0,2;wt%;TITR;0,9;wt%;TITR;;;
GROSCAMP-W-243896;;GROSSMAN-CAMP;GROSSMAN, 1991;37,4;-78,4;0,001;;;CONTINENTAL_RIFT;;;;"AAS; COL; ES; ICP; INAA; TITR; Unknown";WHOLE ROCK;IGNEOUS:VOLCANIC:MAFIC;DIABASE;;52,6;wt%;COL;1,08;wt%;COL;13,8;wt%;COL;;;;2,87;wt%;Unknown;;;;10,8;wt%;TITR;;;;;;;0,22;wt%;AAS;5,63;wt%;AAS;10,2;wt%;Unknown;;;;2,41;wt%;Unknown;0,53;wt%;AAS;0,14;wt%;COL;;;;;;;;;;0,09;wt%;TITR;0,72;wt%;TITR;;;;;;;;;;28;ppm;Unknown;50;ppm;Unknown;60;ppm;Unknown;;;;75;ppm;Unknown;;;;0,025;ppm;AAS;0,09;ppm;INAA;;;;;;;;;;;;;;;;;;;;;;;;;;;;;;;;;;;;;;;;;;;;;;;;;;;;;;;;;;;;;;;;;;;;;;;;;;;;;;;;;;;;;;;;;;;;;;;;;;;;;;;;;;;;;;;;;;;;;;;;;9,8;ppm;INAA;20;ppm;INAA;;;;11;ppm;INAA;3,3;ppm;INAA;1,05;ppm;INAA;;;;0,73;ppm;INAA;;;;;;;;;;;;;3,7;ppm;INAA;0,49;ppm;INAA;0,03;ppm;TITR;0,01;ppm;INAA;;;;;;;;;;;;;;;;;;;0,025;ppm;AAS;;;;;;;;;;7,3;ppm;ES;137;ppm;Unknown;;;;;;;;;;;;;50;ppm;Unknown;25;ppm;Unknown;0,74;ppm;INAA;60;ppm;Unknown;22;ppm;ICP;;;;2,2;ppm;INAA;;;;;;;;;;;;;;;;;;;;;;4,6;ppm;ICP;28;ppm;Unknown;;;;;;;;;;1,3;ppm;Unknown;3,2;ppm;Unknown;24;ppm;Unknown;;;;;;;;;;0,09;ppm;INAA;;;;50;ppm;INAA;;;;153;ppm;Unknown;0,35;ppm;INAA;2,2;ppm;INAA;;;;;;;0,6;ppm;INAA;;;;;;;28;ppm;Unknown;75;ppm;Unknown;96;ppm;Unknown;;;;;;;;;;;;;;;;;;;;;;;;;;;;;;;;;;0,09;wt%;TITR;0,72;wt%;TITR;0,09;wt%;TITR;0,72;wt%;TITR;;;
GROSCAMP-W-243897;;GROSSMAN-CAMP;GROSSMAN, 1991;37,4;-78,4;0,001;;;CONTINENTAL_RIFT;;;;"AAS; COL; ES; ICP; INAA; TITR; Unknown";WHOLE ROCK;IGNEOUS:VOLCANIC:MAFIC;DIABASE;;52,6;wt%;COL;1,1;wt%;COL;13,7;wt%;COL;;;;2,23;wt%;Unknown;;;;10,8;wt%;TITR;;;;;;;0,22;wt%;AAS;5,5;wt%;AAS;10,2;wt%;Unknown;;;;2,33;wt%;Unknown;0,56;wt%;AAS;0,14;wt%;COL;;;;;;;;;;0,08;wt%;TITR;0,63;wt%;TITR;;;;;;;;;;33;ppm;Unknown;47;ppm;Unknown;68;ppm;Unknown;;;;83;ppm;Unknown;;;;0,027;ppm;AAS;0,1;ppm;INAA;;;;;;;;;;;;;;;;;;;;;;;;;;;;;;;;;;;;;;;;;;;;;;;;;;;;;;;;;;;;;;;;;;;;;;;;;;;;;;;;;;;;;;;;;;;;;;;;;;;;;;;;;;;;;;;;;;;;;;;;;9,7;ppm;INAA;19;ppm;INAA;;;;11;ppm;INAA;3,3;ppm;INAA;1;ppm;INAA;;;;0,72;ppm;INAA;;;;;;;;;;;;;3,4;ppm;INAA;0,53;ppm;INAA;0,02;ppm;TITR;0,03;ppm;INAA;;;;;;;;;;;;;;;;;;;0,027;ppm;AAS;;;;;;;220;ppm;INAA;7,1;ppm;ES;157;ppm;Unknown;;;;;;;;;;;;;47;ppm;Unknown;23;ppm;Unknown;0,61;ppm;INAA;68;ppm;Unknown;22;ppm;ICP;;;;2,3;ppm;INAA;;;;;;;;;;;;;;;;;;;;;;5,2;ppm;ICP;33;ppm;Unknown;;;;;;;;;;2,5;ppm;Unknown;5,7;ppm;Unknown;19;ppm;Unknown;;;;;;;;;;0,1;ppm;INAA;;;;47;ppm;INAA;;;;152;ppm;Unknown;0,36;ppm;INAA;2,3;ppm;INAA;;;;;;;0,57;ppm;INAA;;;;;;;29;ppm;Unknown;83;ppm;Unknown;98;ppm;Unknown;;;;;;;;;;;;;;;;;;;;;;;;;;;;;;;;;;0,08;wt%;TITR;0,63;wt%;TITR;0,08;wt%;TITR;0,63;wt%;TITR;;;
GROSCAMP-W-244939;;GROSSMAN-CAMP;GROSSMAN, 1991;41,4167;-72,95;0,001;;;CONTINENTAL_RIFT;;;;"AAS; COL; ICP; INAA; TITR; Unknown";WHOLE ROCK;IGNEOUS:VOLCANIC:MAFIC;DIABASE;;52;wt%;COL;1,25;wt%;COL;15,6;wt%;COL;;;;3,65;wt%;Unknown;;;;7,8;wt%;TITR;;;;;;;0,17;wt%;AAS;5,6;wt%;AAS;10,9;wt%;Unknown;;;;2,21;wt%;Unknown;0,56;wt%;AAS;0,16;wt%;COL;;;;;;;;;;0,27;wt%;TITR;0,93;wt%;TITR;;;;;;;;;;67;ppm;Unknown;45;ppm;Unknown;;;;;;;83;ppm;Unknown;2;ppm;INAA;;;;0,03;ppm;INAA;;;;;;;;;;;;;;;;;;;;;;;;;;;;;;;;;;;;;;;;;;;;;;;;;;;;;;;;;;;;;;;;;;;;;;;;;;;;;;;;;;;;;;;;;;;;;;;;;;;;;;;;;;;;;;;;;;;;;;;;;12;ppm;INAA;24,6;ppm;INAA;;;;15;ppm;INAA;3,7;ppm;INAA;1,16;ppm;INAA;;;;0,7;ppm;INAA;;;;;;;;;;;;;2,4;ppm;INAA;0,33;ppm;INAA;;;;0,02;ppm;INAA;0,01;ppm;INAA;;;;;;;;;;;;;;;;;;;;;;2;ppm;INAA;;;;;;;170;ppm;Unknown;;;;;;;;;;;;;45;ppm;Unknown;137;ppm;Unknown;1,5;ppm;INAA;;;;22;ppm;ICP;;;;2,76;ppm;INAA;;;;;;;;;;;;;;;;;;;;;;8,1;ppm;ICP;67;ppm;Unknown;;;;;;;;;;8,3;ppm;Unknown;8,7;ppm;Unknown;22;ppm;Unknown;;;;0,6;ppm;Unknown;;;;0,03;ppm;INAA;;;;35;ppm;INAA;;;;210;ppm;Unknown;0,55;ppm;INAA;2,31;ppm;INAA;;;;;;;0,55;ppm;INAA;;;;;;;22;ppm;Unknown;83;ppm;Unknown;;;;;;;;;;;;;;;;;;;;;;;;;;;;2;ppm;INAA;2;ppm;INAA;;;;0,27;wt%;TITR;0,93;wt%;TITR;0,27;wt%;TITR;0,93;wt%;TITR;;;
GROSCAMP-W-244940;;GROSSMAN-CAMP;GROSSMAN, 1991;41,4167;-72,95;0,001;;;CONTINENTAL_RIFT;;;;"AAS; COL; ICP; INAA; TITR; Unknown";WHOLE ROCK;IGNEOUS:VOLCANIC:MAFIC;DIABASE;;51,6;wt%;COL;1,2;wt%;COL;16;wt%;COL;;;;3,27;wt%;Unknown;;;;7,3;wt%;TITR;;;;;;;0,16;wt%;AAS;5,7;wt%;AAS;11,2;wt%;Unknown;;;;2,08;wt%;Unknown;0,51;wt%;AAS;0,15;wt%;COL;;;;;;;;;;0,28;wt%;TITR;0,92;wt%;TITR;;;;;;;;;;66;ppm;Unknown;42;ppm;Unknown;;;;;;;70;ppm;Unknown;;;;;;;0,04;ppm;INAA;;;;;;;;;;;;;;;;;;;;;;;;;;;;;;;;;;;;;;;;;;;;;;;;;;;;;;;;;;;;;;;;;;;;;;;;;;;;;;;;;;;;;;;;;;;;;;;;;;;;;;;;;;;;;;;;;;;;;;;;;11,3;ppm;INAA;23;ppm;INAA;;;;12;ppm;INAA;3,6;ppm;INAA;1,1;ppm;INAA;;;;0,65;ppm;INAA;;;;;;;;;;;;;2,4;ppm;INAA;0,34;ppm;INAA;;;;0,02;ppm;INAA;0,01;ppm;INAA;;;;;;;;;;;;;;;;;;;;;;;;;;;;;;;160;ppm;Unknown;;;;;;;;;;;;;42;ppm;Unknown;155;ppm;Unknown;0,81;ppm;INAA;;;;21;ppm;ICP;;;;2,6;ppm;INAA;;;;;;;;;;;;;;;;;;;;;;7,7;ppm;ICP;66;ppm;Unknown;;;;;;;;;;;;;;;;20;ppm;Unknown;;;;;;;;;;0,04;ppm;INAA;0,15;ppm;INAA;33;ppm;INAA;;;;200;ppm;Unknown;0,51;ppm;INAA;2,1;ppm;INAA;;;;;;;0,42;ppm;INAA;;;;;;;21;ppm;Unknown;70;ppm;Unknown;;;;;;;;;;;;;;;;;;;;;;;;;;;;;;;;;;;;;0,28;wt%;TITR;0,92;wt%;TITR;0,28;wt%;TITR;0,92;wt%;TITR;;;