SAMPLE ID;IGSN;EXPEDITION ID;REFERENCES;LATITUDE;LONGITUDE;LOC PREC;MIN ELEVATION;MAX ELEVATION;TECTONIC SETTING;MIN AGE;AGE;MAX AGE;METHOD;ANALYZED MATERIAL;ROCK TYPE;ROCK NAME;MINERAL;SIO2;SIO2 Units;SIO2 Method;TIO2;TIO2 Units;TIO2 Method;AL2O3;AL2O3 Units;AL2O3 Method;CR2O3;CR2O3 Units;CR2O3 Method;FE2O3;FE2O3 Units;FE2O3 Method;FE2O3T;FE2O3T Units;FE2O3T Method;FEO;FEO Units;FEO Method;FEOT;FEOT Units;FEOT Method;NIO;NIO Units;NIO Method;MNO;MNO Units;MNO Method;MGO;MGO Units;MGO Method;CAO;CAO Units;CAO Method;SRO;SRO Units;SRO Method;NA2O;NA2O Units;NA2O Method;K2O;K2O Units;K2O Method;P2O5;P2O5 Units;P2O5 Method;BAO;BAO Units;BAO Method;LOI;LOI Units;LOI Method;H2O;H2O Units;H2O Method;H2O_M;H2O_M Units;H2O_M Method;H2O_P;H2O_P Units;H2O_P Method;SO3;SO3 Units;SO3 Method;COO;COO Units;COO Method;MN;MN Units;MN Method;NI;NI Units;NI Method;CO;CO Units;CO Method;CU;CU Units;CU Method;CD;CD Units;CD Method;ZN;ZN Units;ZN Method;AS;AS Units;AS Method;AG;AG Units;AG Method;S;S Units;S Method;ZRO2;ZRO2 Units;ZRO2 Method;AL;AL Units;AL Method;CA;CA Units;CA Method;SR87_SR86;SR87_SR86 Units;SR87_SR86 Method;SR87_SR86_INI;SR87_SR86_INI Units;SR87_SR86_INI Method;RB87_SR86;RB87_SR86 Units;RB87_SR86 Method;ND143_ND144;ND143_ND144 Units;ND143_ND144 Method;ND143_ND144_INI;ND143_ND144_INI Units;ND143_ND144_INI Method;SM147_ND144;SM147_ND144 Units;SM147_ND144 Method;E_ND;E_ND Units;E_ND Method;E_ND_INI;E_ND_INI Units;E_ND_INI Method;PB204_PB206;PB204_PB206 Units;PB204_PB206 Method;PB206_PB204;PB206_PB204 Units;PB206_PB204 Method;PB206_PB204_INI;PB206_PB204_INI Units;PB206_PB204_INI Method;PB207_PB204;PB207_PB204 Units;PB207_PB204 Method;PB207_PB204_INI;PB207_PB204_INI Units;PB207_PB204_INI Method;PB207_PB206;PB207_PB206 Units;PB207_PB206 Method;PB208_PB204;PB208_PB204 Units;PB208_PB204 Method;PB208_PB204_INI;PB208_PB204_INI Units;PB208_PB204_INI Method;PB208_PB206;PB208_PB206 Units;PB208_PB206 Method;HF176_HF177;HF176_HF177 Units;HF176_HF177 Method;RE187_OS188;RE187_OS188 Units;RE187_OS188 Method;OS187_OS188;OS187_OS188 Units;OS187_OS188 Method;OS187_OS188_INI;OS187_OS188_INI Units;OS187_OS188_INI Method;G_OS;G_OS Units;G_OS Method;G_OS_INI;G_OS_INI Units;G_OS_INI Method;ND143_ND144_INI;ND143_ND144_INI Units;ND143_ND144_INI Method;PB206_PB204_INI;PB206_PB204_INI Units;PB206_PB204_INI Method;PB207_PB204_INI;PB207_PB204_INI Units;PB207_PB204_INI Method;PB208_PB204_INI;PB208_PB204_INI Units;PB208_PB204_INI Method;SR87_SR86_INI;SR87_SR86_INI Units;SR87_SR86_INI Method;HE;HE Units;HE Method;HE3;HE3 Units;HE3 Method;HE3_HE4_R_RA;HE3_HE4_R_RA Units;HE3_HE4_R_RA Method;AR36;AR36 Units;AR36 Method;AR40;AR40 Units;AR40 Method;AR40_AR36;AR40_AR36 Units;AR40_AR36 Method;NE20;NE20 Units;NE20 Method;NE20_NE22;NE20_NE22 Units;NE20_NE22 Method;NE21_NE22;NE21_NE22 Units;NE21_NE22 Method;LA;LA Units;LA Method;CE;CE Units;CE Method;PR;PR Units;PR Method;ND;ND Units;ND Method;SM;SM Units;SM Method;EU;EU Units;EU Method;GD;GD Units;GD Method;TB;TB Units;TB Method;DY;DY Units;DY Method;HO;HO Units;HO Method;ER;ER Units;ER Method;TM;TM Units;TM Method;YB;YB Units;YB Method;LU;LU Units;LU Method;CO2;CO2 Units;CO2 Method;F;F Units;F Method;CL;CL Units;CL Method;U238_PB204;U238_PB204 Units;U238_PB204 Method;TH230_TH232;TH230_TH232 Units;TH230_TH232 Method;RA226_ACTIVITY;RA226_ACTIVITY Units;RA226_ACTIVITY Method;PB210_RA226;PB210_RA226 Units;PB210_RA226 Method;PB210_ACTIVITY;PB210_ACTIVITY Units;PB210_ACTIVITY Method;AG;AG Units;AG Method;AL;AL Units;AL Method;AS;AS Units;AS Method;AU;AU Units;AU Method;B;B Units;B Method;BA;BA Units;BA Method;BE;BE Units;BE Method;BI;BI Units;BI Method;CA;CA Units;CA Method;CD;CD Units;CD Method;CO;CO Units;CO Method;CR;CR Units;CR Method;CS;CS Units;CS Method;CU;CU Units;CU Method;GA;GA Units;GA Method;GER;GER Units;GER Method;HF;HF Units;HF Method;INDIUM;INDIUM Units;INDIUM Method;IR;IR Units;IR Method;K;K Units;K Method;LI;LI Units;LI Method;MN;MN Units;MN Method;MO;MO Units;MO Method;NA;NA Units;NA Method;NB;NB Units;NB Method;NI;NI Units;NI Method;OS;OS Units;OS Method;P;P Units;P Method;PB;PB Units;PB Method;PD;PD Units;PD Method;PT;PT Units;PT Method;RB;RB Units;RB Method;RE;RE Units;RE Method;RH;RH Units;RH Method;RU;RU Units;RU Method;S;S Units;S Method;SB;SB Units;SB Method;SC;SC Units;SC Method;SN;SN Units;SN Method;SR;SR Units;SR Method;TA;TA Units;TA Method;TH;TH Units;TH Method;TI;TI Units;TI Method;TL;TL Units;TL Method;U;U Units;U Method;V;V Units;V Method;W;W Units;W Method;Y;Y Units;Y Method;ZN;ZN Units;ZN Method;ZR;ZR Units;ZR Method;DELTA_O18;DELTA_O18 Units;DELTA_O18 Method;DELTA_C13;DELTA_C13 Units;DELTA_C13 Method;DELTA_MO98;DELTA_MO98 Units;DELTA_MO98 Method;DELTA_ZN66;DELTA_ZN66 Units;DELTA_ZN66 Method;DELTA_ZN68;DELTA_ZN68 Units;DELTA_ZN68 Method;OS188;OS188 Units;OS188 Method;FE3P_FET;FE3P_FET Units;FE3P_FET Method;TI;TI Units;TI Method;AS;AS Units;AS Method;AS;AS Units;AS Method;GER;GER Units;GER Method;H2O_M;H2O_M Units;H2O_M Method;H2O_P;H2O_P Units;H2O_P Method;H2O_M;H2O_M Units;H2O_M Method;H2O_P;H2O_P Units;H2O_P Method;INDIUM;INDIUM Units;INDIUM Method
GROSCAMP-W-223036;;GROSSMAN-CAMP;GROSSMAN, 1991;39,1772;-77,3275;0,0001;;;CONTINENTAL_RIFT;;;;"AAS; COL; ICP; INAA; TITR; Unknown";WHOLE ROCK;IGNEOUS:VOLCANIC:MAFIC;DIABASE;;51,9;wt%;COL;1,1;wt%;COL;14;wt%;COL;;;;2,5;wt%;Unknown;;;;7,9;wt%;TITR;;;;;;;0,34;wt%;AAS;7,4;wt%;AAS;10,6;wt%;Unknown;;;;1,48;wt%;Unknown;0,72;wt%;AAS;0,16;wt%;COL;;;;;;;;;;0,41;wt%;TITR;1,2;wt%;TITR;;;;;;;;;;99;ppm;Unknown;46;ppm;Unknown;123;ppm;Unknown;;;;114;ppm;Unknown;;;;;;;;;;;;;;;;;;;;;;;;;;;;;;;;;;;;;;;;;;;;;;;;;;;;;;;;;;;;;;;;;;;;;;;;;;;;;;;;;;;;;;;;;;;;;;;;;;;;;;;;;;;;;;;;;;;;;;;;;;;;;;;;;;10,7;ppm;INAA;22,6;ppm;INAA;;;;15;ppm;INAA;3,4;ppm;INAA;1,02;ppm;INAA;;;;0,61;ppm;INAA;;;;;;;;;;;;;1,97;ppm;INAA;0,32;ppm;INAA;0,03;ppm;TITR;;;;;;;;;;;;;;;;;;;;;;;;;;;;;;;;;;;;;207;ppm;Unknown;;;;;;;;;;;;;46;ppm;Unknown;294;ppm;Unknown;1,4;ppm;INAA;123;ppm;Unknown;;;;;;;2,52;ppm;INAA;;;;;;;;;;;;;;;;;;;;;;6,1;ppm;ICP;99;ppm;Unknown;;;;;;;;;;11;ppm;Unknown;13;ppm;Unknown;22;ppm;Unknown;;;;;;;;;;;;;0,52;ppm;INAA;37;ppm;INAA;;;;183;ppm;Unknown;0,53;ppm;INAA;2,1;ppm;INAA;;;;;;;0,57;ppm;INAA;;;;;;;24;ppm;Unknown;114;ppm;Unknown;111;ppm;Unknown;;;;;;;;;;;;;;;;;;;;;;;;;;;;;;;;;;0,41;wt%;TITR;1,2;wt%;TITR;0,41;wt%;TITR;1,2;wt%;TITR;;;
GROSCAMP-W-223037;;GROSSMAN-CAMP;GROSSMAN, 1991;39,1772;-77,3275;0,0001;;;CONTINENTAL_RIFT;;;;"AAS; COL; ICP; INAA; TITR; Unknown";WHOLE ROCK;IGNEOUS:VOLCANIC:MAFIC;DIABASE;;51,9;wt%;COL;1,1;wt%;COL;13,9;wt%;COL;;;;2,9;wt%;Unknown;;;;7,5;wt%;TITR;;;;;;;0,32;wt%;AAS;7,5;wt%;AAS;10,2;wt%;Unknown;;;;1,28;wt%;Unknown;0,76;wt%;AAS;0,15;wt%;COL;;;;;;;;;;0,4;wt%;TITR;1,4;wt%;TITR;;;;;;;;;;97;ppm;Unknown;45;ppm;Unknown;157;ppm;Unknown;;;;259;ppm;Unknown;;;;;;;;;;;;;;;;;;;;;;;;;;;;;;;;;;;;;;;;;;;;;;;;;;;;;;;;;;;;;;;;;;;;;;;;;;;;;;;;;;;;;;;;;;;;;;;;;;;;;;;;;;;;;;;;;;;;;;;;;;;;;;;;;;10,6;ppm;INAA;23,1;ppm;INAA;;;;13;ppm;INAA;3,4;ppm;INAA;1;ppm;INAA;;;;0,61;ppm;INAA;;;;;;;;;;;;;2,13;ppm;INAA;0,31;ppm;INAA;0,04;ppm;TITR;;;;;;;;;;;;;;;;;;;;;;;;;;;;;;;;;;;;;246;ppm;Unknown;;;;;;;;;;;;;45;ppm;Unknown;299;ppm;Unknown;1,3;ppm;INAA;157;ppm;Unknown;;;;;;;2,53;ppm;INAA;;;;;;;;;;;;;;;;;;;;;;5,7;ppm;ICP;97;ppm;Unknown;;;;;;;;;;11;ppm;Unknown;15;ppm;Unknown;33;ppm;Unknown;;;;;;;;;;;;;;;;36;ppm;INAA;;;;234;ppm;Unknown;0,47;ppm;INAA;2,04;ppm;INAA;;;;;;;;;;;;;;;;28;ppm;Unknown;259;ppm;Unknown;115;ppm;Unknown;;;;;;;;;;;;;;;;;;;;;;;;;;;;;;;;;;0,4;wt%;TITR;1,4;wt%;TITR;0,4;wt%;TITR;1,4;wt%;TITR;;;
GROSCAMP-W-223038;;GROSSMAN-CAMP;GROSSMAN, 1991;39,1772;-77,3275;0,0001;;;CONTINENTAL_RIFT;;;;"AAS; COL; ICP; INAA; TITR; Unknown";WHOLE ROCK;IGNEOUS:VOLCANIC:MAFIC;DIABASE;;51,7;wt%;COL;0,66;wt%;COL;14,7;wt%;COL;;;;1,4;wt%;Unknown;;;;7,4;wt%;TITR;;;;;;;0,17;wt%;AAS;10,2;wt%;AAS;11,6;wt%;Unknown;;;;1,35;wt%;Unknown;0,22;wt%;AAS;0,09;wt%;COL;;;;;;;;;;0,22;wt%;TITR;0,49;wt%;TITR;;;;;;;;;;150;ppm;Unknown;48;ppm;Unknown;65;ppm;Unknown;;;;78;ppm;Unknown;;;;;;;;;;;;;;;;;;;;;;;;;;;;;;;;;;;;;;;;;;;;;;;;;;;;;;;;;;;;;;;;;;;;;;;;;;;;;;;;;;;;;;;;;;;;;;;;;;;;;;;;;;;;;;;;;;;;;;;;;;;;;;;;;;5,4;ppm;INAA;12,1;ppm;INAA;;;;;;;1,9;ppm;INAA;0,63;ppm;INAA;;;;0,33;ppm;INAA;;;;;;;;;;;;;1,19;ppm;INAA;0,191;ppm;INAA;0,03;ppm;TITR;;;;;;;;;;;;;;;;;;;;;;;;;;;;;;;;;;;;;109;ppm;Unknown;;;;;;;;;;;;;48;ppm;Unknown;490;ppm;Unknown;0,4;ppm;INAA;65;ppm;Unknown;;;;;;;1,32;ppm;INAA;;;;;;;;;;;;;;;;;;;;;;3;ppm;ICP;150;ppm;Unknown;;;;;;;;;;5,8;ppm;Unknown;14;ppm;Unknown;14;ppm;Unknown;;;;;;;;;;;;;;;;35;ppm;INAA;;;;177;ppm;Unknown;0,29;ppm;INAA;1;ppm;INAA;;;;;;;;;;;;;;;;17;ppm;Unknown;78;ppm;Unknown;63;ppm;Unknown;;;;;;;;;;;;;;;;;;;;;;;;;;;;;;;;;;0,22;wt%;TITR;0,49;wt%;TITR;0,22;wt%;TITR;0,49;wt%;TITR;;;
GROSCAMP-W-223039;;GROSSMAN-CAMP;GROSSMAN, 1991;39,1772;-77,3275;0,0001;;;CONTINENTAL_RIFT;;;;"AAS; COL; ICP; INAA; TITR; Unknown";WHOLE ROCK;IGNEOUS:VOLCANIC:MAFIC;DIABASE;;51,6;wt%;COL;0,78;wt%;COL;12,7;wt%;COL;;;;1,4;wt%;Unknown;;;;8,2;wt%;TITR;;;;;;;0,18;wt%;AAS;10,8;wt%;AAS;10,6;wt%;Unknown;;;;1,35;wt%;Unknown;0,36;wt%;AAS;0,1;wt%;COL;;;;;;;;;;0,21;wt%;TITR;0,54;wt%;TITR;;;;;;;;;;160;ppm;Unknown;52;ppm;Unknown;84;ppm;Unknown;;;;74;ppm;Unknown;;;;;;;;;;;;;;;;;;;;;;;;;;;;;;;;;;;;;;;;;;;;;;;;;;;;;;;;;;;;;;;;;;;;;;;;;;;;;;;;;;;;;;;;;;;;;;;;;;;;;;;;;;;;;;;;;;;;;;;;;;;;;;;;;;6,8;ppm;INAA;15,4;ppm;INAA;;;;;;;2,39;ppm;INAA;0,72;ppm;INAA;;;;0,45;ppm;INAA;;;;;;;;;;;;;1,5;ppm;INAA;0,237;ppm;INAA;0,02;ppm;TITR;;;;;;;;;;;;;;;;;;;;;;;;;;;;;;;;;;;;;117;ppm;Unknown;;;;;;;;;;;;;52;ppm;Unknown;590;ppm;Unknown;0,57;ppm;INAA;84;ppm;Unknown;;;;;;;1,7;ppm;INAA;;;;;;;;;;;;;;;;;;;;;;4,2;ppm;ICP;160;ppm;Unknown;;;;;;;;;;7,7;ppm;Unknown;14;ppm;Unknown;12;ppm;Unknown;;;;;;;;;;;;;;;;37;ppm;INAA;;;;155;ppm;Unknown;0,36;ppm;INAA;1,4;ppm;INAA;;;;;;;;;;;;;;;;20;ppm;Unknown;74;ppm;Unknown;71;ppm;Unknown;;;;;;;;;;;;;;;;;;;;;;;;;;;;;;;;;;0,21;wt%;TITR;0,54;wt%;TITR;0,21;wt%;TITR;0,54;wt%;TITR;;;
GROSCAMP-W-223040;;GROSSMAN-CAMP;GROSSMAN, 1991;39,1772;-77,3275;0,0001;;;CONTINENTAL_RIFT;;;;"AAS; COL; ICP; INAA; TITR; Unknown";WHOLE ROCK;IGNEOUS:VOLCANIC:MAFIC;DIABASE;;52,2;wt%;COL;0,75;wt%;COL;13;wt%;COL;;;;1,6;wt%;Unknown;;;;7,8;wt%;TITR;;;;;;;0,17;wt%;AAS;10,9;wt%;AAS;11;wt%;Unknown;;;;1,21;wt%;Unknown;0,3;wt%;AAS;0,1;wt%;COL;;;;;;;;;;0,21;wt%;TITR;0,42;wt%;TITR;;;;;;;;;;160;ppm;Unknown;50;ppm;Unknown;78;ppm;Unknown;;;;71;ppm;Unknown;;;;;;;;;;;;;;;;;;;;;;;;;;;;;;;;;;;;;;;;;;;;;;;;;;;;;;;;;;;;;;;;;;;;;;;;;;;;;;;;;;;;;;;;;;;;;;;;;;;;;;;;;;;;;;;;;;;;;;;;;;;;;;;;;;6,9;ppm;INAA;14,9;ppm;INAA;;;;14;ppm;INAA;2,21;ppm;INAA;0,74;ppm;INAA;;;;0,39;ppm;INAA;;;;;;;;;;;;;1,4;ppm;INAA;0,226;ppm;INAA;0,02;ppm;TITR;;;;;;;;;;;;;;;;;;;;;;;;;;;;;;;;;;;;;126;ppm;Unknown;;;;;;;;;;;;;50;ppm;Unknown;620;ppm;Unknown;0,51;ppm;INAA;78;ppm;Unknown;;;;;;;1,59;ppm;INAA;;;;;;;;;;;;;;;;;;;;;;3,4;ppm;ICP;160;ppm;Unknown;;;;;;;;;;6,5;ppm;Unknown;18;ppm;Unknown;17;ppm;Unknown;;;;;;;;;;;;;;;;37;ppm;INAA;;;;153;ppm;Unknown;0,38;ppm;INAA;1,3;ppm;INAA;;;;;;;;;;;;;;;;19;ppm;Unknown;71;ppm;Unknown;73;ppm;Unknown;;;;;;;;;;;;;;;;;;;;;;;;;;;;;;;;;;0,21;wt%;TITR;0,42;wt%;TITR;0,21;wt%;TITR;0,42;wt%;TITR;;;
GROSCAMP-W-223041;;GROSSMAN-CAMP;GROSSMAN, 1991;39,1772;-77,3275;0,0001;;;CONTINENTAL_RIFT;;;;"AAS; COL; ICP; INAA; TITR; Unknown";WHOLE ROCK;IGNEOUS:VOLCANIC:MAFIC;DIABASE;;52,3;wt%;COL;0,76;wt%;COL;13,7;wt%;COL;;;;1,4;wt%;Unknown;;;;7,6;wt%;TITR;;;;;;;0,16;wt%;AAS;10,3;wt%;AAS;10,5;wt%;Unknown;;;;1,29;wt%;Unknown;0,32;wt%;AAS;0,12;wt%;COL;;;;;;;;;;0,2;wt%;TITR;0,56;wt%;TITR;;;;;;;;;;150;ppm;Unknown;49;ppm;Unknown;87;ppm;Unknown;;;;63;ppm;Unknown;;;;;;;;;;;;;;;;;;;;;;;;;;;;;;;;;;;;;;;;;;;;;;;;;;;;;;;;;;;;;;;;;;;;;;;;;;;;;;;;;;;;;;;;;;;;;;;;;;;;;;;;;;;;;;;;;;;;;;;;;;;;;;;;;;7,9;ppm;INAA;16,4;ppm;INAA;;;;;;;2,4;ppm;INAA;0,78;ppm;INAA;;;;0,37;ppm;INAA;;;;;;;;;;;;;1,4;ppm;INAA;0,23;ppm;INAA;0,03;ppm;TITR;;;;;;;;;;;;;;;;;;;;;;;;;;;;;;;;;;;;;138;ppm;Unknown;;;;;;;;;;;;;49;ppm;Unknown;560;ppm;Unknown;0,71;ppm;INAA;87;ppm;Unknown;;;;;;;1,79;ppm;INAA;;;;;;;;;;;;;;;;;;;;;;4,7;ppm;ICP;150;ppm;Unknown;;;;;;;;;;7,6;ppm;Unknown;16;ppm;Unknown;16;ppm;Unknown;;;;;;;;;;;;;;;;34;ppm;INAA;;;;172;ppm;Unknown;0,39;ppm;INAA;1,52;ppm;INAA;;;;;;;;;;;;;;;;18;ppm;Unknown;63;ppm;Unknown;75;ppm;Unknown;;;;;;;;;;;;;;;;;;;;;;;;;;;;;;;;;;0,2;wt%;TITR;0,56;wt%;TITR;0,2;wt%;TITR;0,56;wt%;TITR;;;
GROSCAMP-W-223042;;GROSSMAN-CAMP;GROSSMAN, 1991;39,1772;-77,3275;0,0001;;;CONTINENTAL_RIFT;;;;"AAS; COL; ICP; INAA; TITR; Unknown";WHOLE ROCK;IGNEOUS:VOLCANIC:MAFIC;DIABASE;;52,3;wt%;COL;0,68;wt%;COL;12,2;wt%;COL;;;;1,4;wt%;Unknown;;;;8,3;wt%;TITR;;;;;;;0,18;wt%;AAS;12,1;wt%;AAS;10,6;wt%;Unknown;;;;1,01;wt%;Unknown;0,5;wt%;AAS;0,08;wt%;COL;;;;;;;;;;0,21;wt%;TITR;0,61;wt%;TITR;;;;;;;;;;170;ppm;Unknown;55;ppm;Unknown;78;ppm;Unknown;;;;76;ppm;Unknown;;;;;;;;;;;;;;;;;;;;;;;;;;;;;;;;;;;;;;;;;;;;;;;;;;;;;;;;;;;;;;;;;;;;;;;;;;;;;;;;;;;;;;;;;;;;;;;;;;;;;;;;;;;;;;;;;;;;;;;;;;;;;;;;;;5,3;ppm;INAA;12,6;ppm;INAA;;;;13;ppm;INAA;2;ppm;INAA;0,63;ppm;INAA;;;;0,39;ppm;INAA;;;;;;;;;;;;;1,3;ppm;INAA;0,199;ppm;INAA;0,02;ppm;TITR;;;;;;;;;;;;;;;;;;;;;;;;;;;;;;;;;;;;;109;ppm;Unknown;;;;;;;;;;;;;55;ppm;Unknown;670;ppm;Unknown;0,45;ppm;INAA;78;ppm;Unknown;;;;;;;1,45;ppm;INAA;;;;;;;;;;;;;;;;;;;;;;2,9;ppm;ICP;170;ppm;Unknown;;;;;;;;;;5,7;ppm;Unknown;16;ppm;Unknown;8;ppm;Unknown;;;;;;;;;;;;;;;;38;ppm;INAA;;;;142;ppm;Unknown;0,33;ppm;INAA;1;ppm;INAA;;;;;;;;;;;;;;;;14;ppm;Unknown;76;ppm;Unknown;60;ppm;Unknown;;;;;;;;;;;;;;;;;;;;;;;;;;;;;;;;;;0,21;wt%;TITR;0,61;wt%;TITR;0,21;wt%;TITR;0,61;wt%;TITR;;;
GROSCAMP-W-223043;;GROSSMAN-CAMP;GROSSMAN, 1991;39,1772;-77,3275;0,0001;;;CONTINENTAL_RIFT;;;;"AAS; COL; ICP; INAA; TITR; Unknown";WHOLE ROCK;IGNEOUS:VOLCANIC:MAFIC;DIABASE;;52,1;wt%;COL;0,69;wt%;COL;13,2;wt%;COL;;;;1,5;wt%;Unknown;;;;7,8;wt%;TITR;;;;;;;0,17;wt%;AAS;11,4;wt%;AAS;10,7;wt%;Unknown;;;;1,48;wt%;Unknown;0,3;wt%;AAS;0,08;wt%;COL;;;;;;;;;;0,2;wt%;TITR;0,66;wt%;TITR;;;;;;;;;;160;ppm;Unknown;52;ppm;Unknown;71;ppm;Unknown;;;;69;ppm;Unknown;;;;;;;;;;;;;;;;;;;;;;;;;;;;;;;;;;;;;;;;;;;;;;;;;;;;;;;;;;;;;;;;;;;;;;;;;;;;;;;;;;;;;;;;;;;;;;;;;;;;;;;;;;;;;;;;;;;;;;;;;;;;;;;;;;5,7;ppm;INAA;13;ppm;INAA;;;;;;;1,97;ppm;INAA;0,66;ppm;INAA;;;;0,36;ppm;INAA;;;;;;;;;;;;;1,4;ppm;INAA;0,211;ppm;INAA;0,02;ppm;TITR;;;;;;;;;;;;;;;;;;;;;;;;;;;;;;;;;;;;;111;ppm;Unknown;;;;;;;;;;;;;52;ppm;Unknown;660;ppm;Unknown;0,46;ppm;INAA;71;ppm;Unknown;;;;;;;1,37;ppm;INAA;;;;;;;;;;;;;;;;;;;;;;3;ppm;ICP;160;ppm;Unknown;;;;;;;;;;7;ppm;Unknown;15;ppm;Unknown;10;ppm;Unknown;;;;;;;;;;;;;;;;36;ppm;INAA;;;;159;ppm;Unknown;0,3;ppm;INAA;1,1;ppm;INAA;;;;;;;;;;;;;;;;17;ppm;Unknown;69;ppm;Unknown;66;ppm;Unknown;;;;;;;;;;;;;;;;;;;;;;;;;;;;;;;;;;0,2;wt%;TITR;0,66;wt%;TITR;0,2;wt%;TITR;0,66;wt%;TITR;;;
GROSCAMP-W-246935;;GROSSMAN-CAMP;GROSSMAN, 1991;38,526;-78,014;0,001;;;CONTINENTAL_RIFT;;;;Unknown;WHOLE ROCK;IGNEOUS:VOLCANIC:MAFIC;DIABASE;;;;;;;;;;;;;;;;;;;;;;;;;;;;;;;;;;;;;;;;;;;;;;;;;;;;;;;;;;;;;;;;;;;;;;;;;;19;ppm;Unknown;45;ppm;Unknown;250;ppm;Unknown;;;;;;;;;;;;;;;;;;;;;;;;;;;;;;;;;;;;;;;;;;;;;;;;;;;;;;;;;;;;;;;;;;;;;;;;;;;;;;;;;;;;;;;;;;;;;;;;;;;;;;;;;;;;;;;;;;;;;;;;;;;;;;;;;;;;;;;;;;;;;;;;;;;;;;;;;;;;;;;;;;;;;;;;;;;;;;;;;;;;;;;;;;;;;;;;;;;;;;;;;;;;;;;;;;;;;;;;;;;;;;;;;;;;;;;;45;ppm;Unknown;;;;;;;250;ppm;Unknown;;;;;;;;;;;;;;;;;;;;;;;;;;;;;;;;;;19;ppm;Unknown;;;;;;;;;;40;ppm;Unknown;4,1;ppm;Unknown;;;;;;;;;;;;;;;;;;;;;;;;;;;;;;;;;;;;;;;;;;;;;;;;;;;;;;;;;;;;;;;;;;;;;;;;;;;;;;;;;;;;;;;;;;;;;;;;;;;;;;;;;
GROSCAMP-W-223044;;GROSSMAN-CAMP;GROSSMAN, 1991;39,1772;-77,3275;0,0001;;;CONTINENTAL_RIFT;;;;"AAS; COL; ICP; INAA; TITR; Unknown";WHOLE ROCK;IGNEOUS:VOLCANIC:MAFIC;DIABASE;;51,9;wt%;COL;0,74;wt%;COL;13,4;wt%;COL;;;;1,5;wt%;Unknown;;;;7,8;wt%;TITR;;;;;;;0,17;wt%;AAS;10,8;wt%;AAS;11;wt%;Unknown;;;;1,28;wt%;Unknown;0,44;wt%;AAS;0,09;wt%;COL;;;;;;;;;;0,24;wt%;TITR;0,61;wt%;TITR;;;;;;;;;;140;ppm;Unknown;50;ppm;Unknown;85;ppm;Unknown;;;;68;ppm;Unknown;;;;;;;;;;;;;;;;;;;;;;;;;;;;;;;;;;;;;;;;;;;;;;;;;;;;;;;;;;;;;;;;;;;;;;;;;;;;;;;;;;;;;;;;;;;;;;;;;;;;;;;;;;;;;;;;;;;;;;;;;;;;;;;;;;7;ppm;INAA;15;ppm;INAA;;;;;;;2,23;ppm;INAA;0,73;ppm;INAA;;;;0,4;ppm;INAA;;;;;;;;;;;;;1,38;ppm;INAA;0,21;ppm;INAA;0,02;ppm;TITR;;;;;;;;;;;;;;;;;;;;;;;;;;;;;;;;;;;;;115;ppm;Unknown;;;;;;;;;;;;;50;ppm;Unknown;630;ppm;Unknown;0,51;ppm;INAA;85;ppm;Unknown;;;;;;;1,62;ppm;INAA;;;;;;;;;;;;;;;;;;;;;;3,4;ppm;ICP;140;ppm;Unknown;;;;;;;;;;6,4;ppm;Unknown;16;ppm;Unknown;14;ppm;Unknown;;;;;;;;;;;;;;;;36;ppm;INAA;;;;166;ppm;Unknown;0,35;ppm;INAA;1,29;ppm;INAA;;;;;;;;;;;;;;;;18;ppm;Unknown;68;ppm;Unknown;70;ppm;Unknown;;;;;;;;;;;;;;;;;;;;;;;;;;;;;;;;;;0,24;wt%;TITR;0,61;wt%;TITR;0,24;wt%;TITR;0,61;wt%;TITR;;;
GROSCAMP-W-223045;;GROSSMAN-CAMP;GROSSMAN, 1991;39,1772;-77,3275;0,0001;;;CONTINENTAL_RIFT;;;;"AAS; COL; ICP; INAA; TITR; Unknown";WHOLE ROCK;IGNEOUS:VOLCANIC:MAFIC;DIABASE;;55,5;wt%;COL;2,6;wt%;COL;13,2;wt%;COL;;;;4,6;wt%;Unknown;;;;6,8;wt%;TITR;;;;;;;0,22;wt%;AAS;3,9;wt%;AAS;7,2;wt%;Unknown;;;;2,02;wt%;Unknown;1,2;wt%;AAS;0,64;wt%;COL;;;;;;;;;;0,47;wt%;TITR;1,1;wt%;TITR;;;;;;;;;;45;ppm;Unknown;35;ppm;Unknown;200;ppm;Unknown;;;;76;ppm;Unknown;;;;;;;;;;;;;;;;;;;;;;;;;;;;;;;;;;;;;;;;;;;;;;;;;;;;;;;;;;;;;;;;;;;;;;;;;;;;;;;;;;;;;;;;;;;;;;;;;;;;;;;;;;;;;;;;;;;;;;;;;;;;;;;;;;38;ppm;INAA;75;ppm;INAA;;;;38;ppm;INAA;9,2;ppm;INAA;1,81;ppm;INAA;;;;1,39;ppm;INAA;;;;;;;;;;;;;4,3;ppm;INAA;0,63;ppm;INAA;0,03;ppm;TITR;;;;;;;;;;;;;;;;;;;;;;;;;;;;;;;;;;;;;250;ppm;Unknown;;;;;;;;;;;;;35;ppm;Unknown;56;ppm;Unknown;0,63;ppm;INAA;200;ppm;Unknown;;;;;;;8,2;ppm;INAA;;;;;;;;;;;;;;;;;;;;;;25;ppm;ICP;45;ppm;Unknown;;;;;;;;;;1,1;ppm;Unknown;1,2;ppm;Unknown;31;ppm;Unknown;;;;;;;;;;;;;;;;24;ppm;INAA;;;;181;ppm;Unknown;1,85;ppm;INAA;8,3;ppm;INAA;;;;;;;1,5;ppm;INAA;;;;;;;48;ppm;Unknown;76;ppm;Unknown;330;ppm;Unknown;;;;;;;;;;;;;;;;;;;;;;;;;;;;;;;;;;0,47;wt%;TITR;1,1;wt%;TITR;0,47;wt%;TITR;1,1;wt%;TITR;;;
GROSCAMP-W-223046;;GROSSMAN-CAMP;GROSSMAN, 1991;39,1772;-77,3275;0,0001;;;CONTINENTAL_RIFT;;;;"AAS; COL; ICP; INAA; TITR; Unknown";WHOLE ROCK;IGNEOUS:VOLCANIC:MAFIC;DIABASE;;52,7;wt%;COL;0,85;wt%;COL;11,3;wt%;COL;;;;1,8;wt%;Unknown;;;;9,5;wt%;TITR;;;;;;;0,2;wt%;AAS;12,3;wt%;AAS;10;wt%;Unknown;;;;0,73;wt%;Unknown;0,32;wt%;AAS;0,1;wt%;COL;;;;;;;;;;0,26;wt%;TITR;0,46;wt%;TITR;;;;;;;;;;190;ppm;Unknown;58;ppm;Unknown;98;ppm;Unknown;;;;73;ppm;Unknown;;;;;;;;;;;;;;;;;;;;;;;;;;;;;;;;;;;;;;;;;;;;;;;;;;;;;;;;;;;;;;;;;;;;;;;;;;;;;;;;;;;;;;;;;;;;;;;;;;;;;;;;;;;;;;;;;;;;;;;;;;;;;;;;;;6,4;ppm;INAA;14,7;ppm;INAA;;;;;;;2,3;ppm;INAA;0,75;ppm;INAA;;;;0,41;ppm;INAA;;;;;;;;;;;;;1,58;ppm;INAA;0,28;ppm;INAA;0,02;ppm;TITR;;;;;;;;;;;;;;;;;;;;;;;;;;;;;;;;;;;;;113;ppm;Unknown;;;;;;;;;;;;;58;ppm;Unknown;650;ppm;Unknown;0,41;ppm;INAA;98;ppm;Unknown;;;;;;;1,55;ppm;INAA;;;;;;;;;;;;;;;;;;;;;;3,9;ppm;ICP;190;ppm;Unknown;;;;;;;;;;8,4;ppm;Unknown;19;ppm;Unknown;14;ppm;Unknown;;;;;;;;;;;;;;;;39;ppm;INAA;;;;139;ppm;Unknown;0,34;ppm;INAA;1,21;ppm;INAA;;;;;;;;;;;;;;;;20;ppm;Unknown;73;ppm;Unknown;71;ppm;Unknown;;;;;;;;;;;;;;;;;;;;;;;;;;;;;;;;;;0,26;wt%;TITR;0,46;wt%;TITR;0,26;wt%;TITR;0,46;wt%;TITR;;;