SAMPLE ID;IGSN;EXPEDITION ID;REFERENCES;LATITUDE;LONGITUDE;LOC PREC;MIN ELEVATION;MAX ELEVATION;TECTONIC SETTING;MIN AGE;AGE;MAX AGE;METHOD;ANALYZED MATERIAL;ROCK TYPE;ROCK NAME;MINERAL;SIO2;SIO2 Units;SIO2 Method;TIO2;TIO2 Units;TIO2 Method;AL2O3;AL2O3 Units;AL2O3 Method;CR2O3;CR2O3 Units;CR2O3 Method;FE2O3;FE2O3 Units;FE2O3 Method;FE2O3T;FE2O3T Units;FE2O3T Method;FEO;FEO Units;FEO Method;FEOT;FEOT Units;FEOT Method;NIO;NIO Units;NIO Method;MNO;MNO Units;MNO Method;MGO;MGO Units;MGO Method;CAO;CAO Units;CAO Method;SRO;SRO Units;SRO Method;NA2O;NA2O Units;NA2O Method;K2O;K2O Units;K2O Method;P2O5;P2O5 Units;P2O5 Method;BAO;BAO Units;BAO Method;LOI;LOI Units;LOI Method;H2O;H2O Units;H2O Method;H2O_M;H2O_M Units;H2O_M Method;H2O_P;H2O_P Units;H2O_P Method;SO3;SO3 Units;SO3 Method;COO;COO Units;COO Method;MN;MN Units;MN Method;NI;NI Units;NI Method;CO;CO Units;CO Method;CU;CU Units;CU Method;CD;CD Units;CD Method;ZN;ZN Units;ZN Method;AS;AS Units;AS Method;AG;AG Units;AG Method;S;S Units;S Method;ZRO2;ZRO2 Units;ZRO2 Method;AL;AL Units;AL Method;CA;CA Units;CA Method;SR87_SR86;SR87_SR86 Units;SR87_SR86 Method;SR87_SR86_INI;SR87_SR86_INI Units;SR87_SR86_INI Method;RB87_SR86;RB87_SR86 Units;RB87_SR86 Method;ND143_ND144;ND143_ND144 Units;ND143_ND144 Method;ND143_ND144_INI;ND143_ND144_INI Units;ND143_ND144_INI Method;SM147_ND144;SM147_ND144 Units;SM147_ND144 Method;E_ND;E_ND Units;E_ND Method;E_ND_INI;E_ND_INI Units;E_ND_INI Method;PB204_PB206;PB204_PB206 Units;PB204_PB206 Method;PB206_PB204;PB206_PB204 Units;PB206_PB204 Method;PB206_PB204_INI;PB206_PB204_INI Units;PB206_PB204_INI Method;PB207_PB204;PB207_PB204 Units;PB207_PB204 Method;PB207_PB204_INI;PB207_PB204_INI Units;PB207_PB204_INI Method;PB207_PB206;PB207_PB206 Units;PB207_PB206 Method;PB208_PB204;PB208_PB204 Units;PB208_PB204 Method;PB208_PB204_INI;PB208_PB204_INI Units;PB208_PB204_INI Method;PB208_PB206;PB208_PB206 Units;PB208_PB206 Method;HF176_HF177;HF176_HF177 Units;HF176_HF177 Method;RE187_OS188;RE187_OS188 Units;RE187_OS188 Method;OS187_OS188;OS187_OS188 Units;OS187_OS188 Method;OS187_OS188_INI;OS187_OS188_INI Units;OS187_OS188_INI Method;G_OS;G_OS Units;G_OS Method;G_OS_INI;G_OS_INI Units;G_OS_INI Method;ND143_ND144_INI;ND143_ND144_INI Units;ND143_ND144_INI Method;PB206_PB204_INI;PB206_PB204_INI Units;PB206_PB204_INI Method;PB207_PB204_INI;PB207_PB204_INI Units;PB207_PB204_INI Method;PB208_PB204_INI;PB208_PB204_INI Units;PB208_PB204_INI Method;SR87_SR86_INI;SR87_SR86_INI Units;SR87_SR86_INI Method;HE;HE Units;HE Method;HE3;HE3 Units;HE3 Method;HE3_HE4_R_RA;HE3_HE4_R_RA Units;HE3_HE4_R_RA Method;AR36;AR36 Units;AR36 Method;AR40;AR40 Units;AR40 Method;AR40_AR36;AR40_AR36 Units;AR40_AR36 Method;NE20;NE20 Units;NE20 Method;NE20_NE22;NE20_NE22 Units;NE20_NE22 Method;NE21_NE22;NE21_NE22 Units;NE21_NE22 Method;LA;LA Units;LA Method;CE;CE Units;CE Method;PR;PR Units;PR Method;ND;ND Units;ND Method;SM;SM Units;SM Method;EU;EU Units;EU Method;GD;GD Units;GD Method;TB;TB Units;TB Method;DY;DY Units;DY Method;HO;HO Units;HO Method;ER;ER Units;ER Method;TM;TM Units;TM Method;YB;YB Units;YB Method;LU;LU Units;LU Method;CO2;CO2 Units;CO2 Method;F;F Units;F Method;CL;CL Units;CL Method;U238_PB204;U238_PB204 Units;U238_PB204 Method;TH230_TH232;TH230_TH232 Units;TH230_TH232 Method;RA226_ACTIVITY;RA226_ACTIVITY Units;RA226_ACTIVITY Method;PB210_RA226;PB210_RA226 Units;PB210_RA226 Method;PB210_ACTIVITY;PB210_ACTIVITY Units;PB210_ACTIVITY Method;AG;AG Units;AG Method;AL;AL Units;AL Method;AS;AS Units;AS Method;AU;AU Units;AU Method;B;B Units;B Method;BA;BA Units;BA Method;BE;BE Units;BE Method;BI;BI Units;BI Method;CA;CA Units;CA Method;CD;CD Units;CD Method;CO;CO Units;CO Method;CR;CR Units;CR Method;CS;CS Units;CS Method;CU;CU Units;CU Method;GA;GA Units;GA Method;GER;GER Units;GER Method;HF;HF Units;HF Method;INDIUM;INDIUM Units;INDIUM Method;IR;IR Units;IR Method;K;K Units;K Method;LI;LI Units;LI Method;MN;MN Units;MN Method;MO;MO Units;MO Method;NA;NA Units;NA Method;NB;NB Units;NB Method;NI;NI Units;NI Method;OS;OS Units;OS Method;P;P Units;P Method;PB;PB Units;PB Method;PD;PD Units;PD Method;PT;PT Units;PT Method;RB;RB Units;RB Method;RE;RE Units;RE Method;RH;RH Units;RH Method;RU;RU Units;RU Method;S;S Units;S Method;SB;SB Units;SB Method;SC;SC Units;SC Method;SN;SN Units;SN Method;SR;SR Units;SR Method;TA;TA Units;TA Method;TH;TH Units;TH Method;TI;TI Units;TI Method;TL;TL Units;TL Method;U;U Units;U Method;V;V Units;V Method;W;W Units;W Method;Y;Y Units;Y Method;ZN;ZN Units;ZN Method;ZR;ZR Units;ZR Method;DELTA_O18;DELTA_O18 Units;DELTA_O18 Method;DELTA_C13;DELTA_C13 Units;DELTA_C13 Method;DELTA_MO98;DELTA_MO98 Units;DELTA_MO98 Method;DELTA_ZN66;DELTA_ZN66 Units;DELTA_ZN66 Method;DELTA_ZN68;DELTA_ZN68 Units;DELTA_ZN68 Method;OS188;OS188 Units;OS188 Method;FE3P_FET;FE3P_FET Units;FE3P_FET Method;TI;TI Units;TI Method;AS;AS Units;AS Method;AS;AS Units;AS Method;GER;GER Units;GER Method;H2O_M;H2O_M Units;H2O_M Method;H2O_P;H2O_P Units;H2O_P Method;H2O_M;H2O_M Units;H2O_M Method;H2O_P;H2O_P Units;H2O_P Method;INDIUM;INDIUM Units;INDIUM Method
GROSCAMP-W-239860;;GROSSMAN-CAMP;GROSSMAN, 1991;35,6353;-78,8097;0,001;;;CONTINENTAL_RIFT;;;;Unknown;WHOLE ROCK;IGNEOUS:VOLCANIC:MAFIC;DIABASE;;;;;;;;;;;;;;;;;;;;;;;;;;;;;;;;;;;;;;;;;;;;;;;;;;;;;;;;;;;;;;;;;;;;;;;;;;310;ppm;Unknown;60;ppm;Unknown;95;ppm;Unknown;;;;80;ppm;Unknown;;;;;;;;;;;;;;;;;;;;;;;;;;;;;;;;;;;;;;;;;;;;;;;;;;;;;;;;;;;;;;;;;;;;;;;;;;;;;;;;;;;;;;;;;;;;;;;;;;;;;;;;;;;;;;;;;;;;;;;;;;;;;;;;;;;;;;;;;;;;;;;;;;;;;;;;;;;;;;;;;;;;;;;;;;;;;;;;;;;;;;;;;;;;;;;;;;;;;;;;;;;;;;;;;;;;;;;;;;;;;;;;;;60;ppm;Unknown;1100;ppm;Unknown;;;;95;ppm;Unknown;;;;;;;;;;;;;;;;;;;;;;;;;;;;;;;;;;310;ppm;Unknown;;;;;;;;;;;;;;;;;;;;;;;;;;;;;;;;;;;;;;;;;;;;;;;;;;;;;;;;;;;;;;;;;;;80;ppm;Unknown;;;;;;;;;;;;;;;;;;;;;;;;;;;;;;;;;;;;;;;;;;;;;;;;;;;
GROSCAMP-W-239863;;GROSSMAN-CAMP;GROSSMAN, 1991;35,9692;-78,8161;0,001;;;CONTINENTAL_RIFT;;;;Unknown;WHOLE ROCK;IGNEOUS:VOLCANIC:MAFIC;DIABASE;;;;;;;;;;;;;;;;;;;;;;;;;;;;;;;;;;;;;;;;;;;;;;;;;;;;;;;;;;;;;;;;;;;;;;;;;;270;ppm;Unknown;53;ppm;Unknown;82;ppm;Unknown;;;;59;ppm;Unknown;;;;;;;;;;;;;;;;;;;;;;;;;;;;;;;;;;;;;;;;;;;;;;;;;;;;;;;;;;;;;;;;;;;;;;;;;;;;;;;;;;;;;;;;;;;;;;;;;;;;;;;;;;;;;;;;;;;;;;;;;;;;;;;;;;;;;;;;;;;;;;;;;;;;;;;;;;;;;;;;;;;;;;;;;;;;;;;;;;;;;;;;;;;;;;;;;;;;;;;;;;;;;;;;;;;;;;;;;;;;;;;;;;53;ppm;Unknown;700;ppm;Unknown;;;;82;ppm;Unknown;;;;;;;;;;;;;;;;;;;;;;;;;;;;;;;;;;270;ppm;Unknown;;;;;;;;;;;;;;;;;;;;;;;;;;;;;;;;;;;;;;;;;;;;;;;;;;;;;;;;;;;;;;;;;;;59;ppm;Unknown;;;;;;;;;;;;;;;;;;;;;;;;;;;;;;;;;;;;;;;;;;;;;;;;;;;
GROSCAMP-W-239864;;GROSSMAN-CAMP;GROSSMAN, 1991;35,9692;-78,8161;0,001;;;CONTINENTAL_RIFT;;;;Unknown;WHOLE ROCK;IGNEOUS:VOLCANIC:MAFIC;DIABASE;;;;;;;;;;;;;;;;;;;;;;;;;;;;;;;;;;;;;;;;;;;;;;;;;;;;;;;;;;;;;;;;;;;;;;;;;;310;ppm;Unknown;63;ppm;Unknown;93;ppm;Unknown;;;;69;ppm;Unknown;;;;;;;;;;;;;;;;;;;;;;;;;;;;;;;;;;;;;;;;;;;;;;;;;;;;;;;;;;;;;;;;;;;;;;;;;;;;;;;;;;;;;;;;;;;;;;;;;;;;;;;;;;;;;;;;;;;;;;;;;;;;;;;;;;;;;;;;;;;;;;;;;;;;;;;;;;;;;;;;;;;;;;;;;;;;;;;;;;;;;;;;;;;;;;;;;;;;;;;;;;;;;;;;;;;;;;;;;;;;;;;;;;63;ppm;Unknown;940;ppm;Unknown;;;;93;ppm;Unknown;;;;;;;;;;;;;;;;;;;;;;;;;;;;;;;;;;310;ppm;Unknown;;;;;;;;;;;;;;;;;;;;;;;;;;;;;;;;;;;;;;;;;;;;;;;;;;;;;;;;;;;;;;;;;;;69;ppm;Unknown;;;;;;;;;;;;;;;;;;;;;;;;;;;;;;;;;;;;;;;;;;;;;;;;;;;
GROSCAMP-W-239866;;GROSSMAN-CAMP;GROSSMAN, 1991;36,0328;-78,8956;0,001;;;CONTINENTAL_RIFT;;;;"ICP; INAA; Unknown";WHOLE ROCK;IGNEOUS:VOLCANIC:MAFIC;DIABASE;;;;;;;;;;;;;;;;;12,36;wt%;Unknown;;;;;;;;;;;;;;;;10,49;wt%;Unknown;;;;1,58;wt%;Unknown;;;;;;;;;;;;;;;;;;;;;;;;;;;;;;;500;ppm;Unknown;74;ppm;Unknown;88;ppm;Unknown;;;;88;ppm;Unknown;;;;;;;0,03;ppm;INAA;;;;;;;;;;;;;;;;;;;;;;;;;;;;;;;;;;;;;;;;;;;;;;;;;;;;;;;;;;;;;;;;;;;;;;;;;;;;;;;;;;;;;;;;;;;;;;;;;;;;;;;;;;;;;;;;;;;;;;;;;2,7;ppm;INAA;6,1;ppm;INAA;;;;4,1;ppm;INAA;1,1;ppm;INAA;0,38;ppm;INAA;;;;0,33;ppm;INAA;;;;;;;;;;;;;2,2;ppm;INAA;0,34;ppm;INAA;;;;;;;;;;;;;;;;;;;;;;;;;;;;;;;;;;;;;;;;32;ppm;Unknown;;;;;;;;;;;;;74;ppm;Unknown;1280;ppm;Unknown;1,8;ppm;INAA;88;ppm;Unknown;;;;;;;0,91;ppm;INAA;;;;;;;;;;;;;;;;;;;;;;1,3;ppm;ICP;500;ppm;Unknown;;;;;;;;;;10;ppm;Unknown;14;ppm;Unknown;3;ppm;Unknown;;;;;;;;;;0,03;ppm;INAA;;;;42;ppm;INAA;;;;79;ppm;Unknown;0,16;ppm;INAA;;;;;;;;;;;;;;;;;;;20;ppm;Unknown;88;ppm;Unknown;36;ppm;Unknown;;;;;;;;;;;;;;;;;;;;;;;;;;;;;;;;;;;;;;;;;;;;;;;;
GROSCAMP-W-239867;;GROSSMAN-CAMP;GROSSMAN, 1991;36,0328;-78,8956;0,001;;;CONTINENTAL_RIFT;;;;"ICP; INAA; Unknown";WHOLE ROCK;IGNEOUS:VOLCANIC:MAFIC;DIABASE;;;;;;;;;;;;;;;;;12,3;wt%;Unknown;;;;;;;;;;;;;;;;9,65;wt%;Unknown;;;;1,56;wt%;Unknown;;;;;;;;;;;;;;;;;;;;;;;;;;;;;;;560;ppm;Unknown;80;ppm;Unknown;83;ppm;Unknown;;;;84;ppm;Unknown;;;;;;;0,05;ppm;INAA;;;;;;;;;;;;;;;;;;;;;;;;;;;;;;;;;;;;;;;;;;;;;;;;;;;;;;;;;;;;;;;;;;;;;;;;;;;;;;;;;;;;;;;;;;;;;;;;;;;;;;;;;;;;;;;;;;;;;;;;;2,9;ppm;INAA;6,5;ppm;INAA;;;;3,4;ppm;INAA;1,1;ppm;INAA;0,39;ppm;INAA;;;;0,31;ppm;INAA;;;;;;;;;;;;;2,12;ppm;INAA;0,31;ppm;INAA;;;;;;;;;;;;;;;;;;;;;;;;;;;;;;;;;;;;;;;;57;ppm;Unknown;;;;;;;;;;;;;80;ppm;Unknown;1810;ppm;Unknown;1,3;ppm;INAA;83;ppm;Unknown;;;;;;;0,67;ppm;INAA;;;;;;;;;;;;;;;;;;;;;;1,4;ppm;ICP;560;ppm;Unknown;;;;;;;;;;19;ppm;Unknown;19;ppm;Unknown;4;ppm;Unknown;;;;1,7;ppm;Unknown;;;;0,05;ppm;INAA;;;;39;ppm;INAA;;;;96;ppm;Unknown;0,2;ppm;INAA;0,31;ppm;INAA;;;;;;;;;;;;;;;;21;ppm;Unknown;84;ppm;Unknown;34;ppm;Unknown;;;;;;;;;;;;;;;;;;;;;;;;;;;;;;;;;;;;;;;;;;;;;;;;
GROSCAMP-W-239868;;GROSSMAN-CAMP;GROSSMAN, 1991;35,9686;-78,7931;0,001;;;CONTINENTAL_RIFT;;;;"ICP; INAA; Unknown";WHOLE ROCK;IGNEOUS:VOLCANIC:MAFIC;DIABASE;;;;;;;;;;;;;;;;;12,11;wt%;Unknown;;;;;;;;;;;;;;;;9,93;wt%;Unknown;;;;1,67;wt%;Unknown;;;;;;;;;;;;;;;;;;;;;;;;;;;;;;;600;ppm;Unknown;82;ppm;Unknown;83;ppm;Unknown;;;;82;ppm;Unknown;;;;;;;0,05;ppm;INAA;;;;;;;;;;;;;;;;;;;;;;;;;;;;;;;;;;;;;;;;;;;;;;;;;;;;;;;;;;;;;;;;;;;;;;;;;;;;;;;;;;;;;;;;;;;;;;;;;;;;;;;;;;;;;;;;;;;;;;;;;3,2;ppm;INAA;7;ppm;INAA;;;;4,5;ppm;INAA;1,2;ppm;INAA;0,39;ppm;INAA;;;;0,33;ppm;INAA;;;;;;;;;;;;;2,16;ppm;INAA;0,33;ppm;INAA;;;;;;;;;;;;;;;;;;;;;;;;;;;;;;;;;;;;;;;;57;ppm;Unknown;;;;;;;;;;;;;82;ppm;Unknown;1320;ppm;Unknown;0,51;ppm;INAA;83;ppm;Unknown;;;;;;;0,81;ppm;INAA;;;;;;;;;;;;;;;;;;;;;;2,3;ppm;ICP;600;ppm;Unknown;;;;;;;;;;11;ppm;Unknown;16;ppm;Unknown;6;ppm;Unknown;;;;;;;;;;0,05;ppm;INAA;;;;39;ppm;INAA;;;;85;ppm;Unknown;0,79;ppm;INAA;0,37;ppm;INAA;;;;;;;;;;;;;;;;23;ppm;Unknown;82;ppm;Unknown;43;ppm;Unknown;;;;;;;;;;;;;;;;;;;;;;;;;;;;;;;;;;;;;;;;;;;;;;;;
GROSCAMP-W-239869;;GROSSMAN-CAMP;GROSSMAN, 1991;35,9686;-78,8097;0,001;;;CONTINENTAL_RIFT;;;;"ICP; INAA; Unknown";WHOLE ROCK;IGNEOUS:VOLCANIC:MAFIC;DIABASE;;;;;;;;;;;;;;;;;11,81;wt%;Unknown;;;;;;;;;;;;;;;;11,61;wt%;Unknown;;;;1,87;wt%;Unknown;;;;;;;;;;;;;;;;;;;;;;;;;;;;;;;220;ppm;Unknown;64;ppm;Unknown;100;ppm;Unknown;;;;89;ppm;Unknown;;;;;;;0,03;ppm;INAA;;;;;;;;;;;;;;;;;;;;;;;;;;;;;;;;;;;;;;;;;;;;;;;;;;;;;;;;;;;;;;;;;;;;;;;;;;;;;;;;;;;;;;;;;;;;;;;;;;;;;;;;;;;;;;;;;;;;;;;;;3,4;ppm;INAA;7,3;ppm;INAA;;;;4,5;ppm;INAA;1,33;ppm;INAA;0,44;ppm;INAA;;;;0,36;ppm;INAA;;;;;;;;;;;;;2,53;ppm;INAA;0,38;ppm;INAA;;;;;;;;;;;;;;;;;;;;;;;;;;;;;;;;;;;;;;;;51;ppm;Unknown;;;;;;;;;;;;;64;ppm;Unknown;730;ppm;Unknown;0,87;ppm;INAA;100;ppm;Unknown;;;;;;;;;;;;;;;;;;;;;;;;;;;;;;;2,2;ppm;ICP;220;ppm;Unknown;;;;;;;;;;11;ppm;Unknown;14;ppm;Unknown;3;ppm;Unknown;;;;;;;;;;0,03;ppm;INAA;;;;46;ppm;INAA;;;;95;ppm;Unknown;0,89;ppm;INAA;0,25;ppm;INAA;;;;;;;;;;;;;;;;22;ppm;Unknown;89;ppm;Unknown;42;ppm;Unknown;;;;;;;;;;;;;;;;;;;;;;;;;;;;;;;;;;;;;;;;;;;;;;;;
GROSCAMP-W-239870;;GROSSMAN-CAMP;GROSSMAN, 1991;35,9686;-78,8097;0,001;;;CONTINENTAL_RIFT;;;;"ICP; INAA; Unknown";WHOLE ROCK;IGNEOUS:VOLCANIC:MAFIC;DIABASE;;;;;;;;;;;;;;;;;12;wt%;Unknown;;;;;;;;;;;;;;;;10,35;wt%;Unknown;;;;1,63;wt%;Unknown;;;;;;;;;;;;;;;;;;;;;;;;;;;;;;;530;ppm;Unknown;95;ppm;Unknown;88;ppm;Unknown;;;;79;ppm;Unknown;;;;;;;0,05;ppm;INAA;;;;;;;;;;;;;;;;;;;;;;;;;;;;;;;;;;;;;;;;;;;;;;;;;;;;;;;;;;;;;;;;;;;;;;;;;;;;;;;;;;;;;;;;;;;;;;;;;;;;;;;;;;;;;;;;;;;;;;;;;3;ppm;INAA;6,8;ppm;INAA;;;;3,8;ppm;INAA;1,1;ppm;INAA;0,39;ppm;INAA;;;;0,32;ppm;INAA;;;;;;;;;;;;;2,11;ppm;INAA;0,32;ppm;INAA;;;;;;;;;;;;;;;;;;;;;;;;;;;;;;;;;;;;;;;;54;ppm;Unknown;;;;;;;;;;;;;95;ppm;Unknown;1310;ppm;Unknown;0,73;ppm;INAA;88;ppm;Unknown;;;;;;;0,66;ppm;INAA;;;;;;;;;;;;;;;;;;;;;;2,4;ppm;ICP;530;ppm;Unknown;;;;;;;;;;17;ppm;Unknown;14;ppm;Unknown;;;;;;;0,8;ppm;Unknown;;;;0,05;ppm;INAA;;;;40;ppm;INAA;;;;86;ppm;Unknown;1,3;ppm;INAA;;;;;;;;;;;;;;;;;;;18;ppm;Unknown;79;ppm;Unknown;33;ppm;Unknown;;;;;;;;;;;;;;;;;;;;;;;;;;;;;;;;;;;;;;;;;;;;;;;;
GROSCAMP-W-239871;;GROSSMAN-CAMP;GROSSMAN, 1991;35,9692;-78,8161;0,001;;;CONTINENTAL_RIFT;;;;"ICP; INAA; Unknown";WHOLE ROCK;IGNEOUS:VOLCANIC:MAFIC;DIABASE;;;;;;;;;;;;;;;;;12,59;wt%;Unknown;;;;;;;;;;;;;;;;8,53;wt%;Unknown;;;;1,46;wt%;Unknown;;;;;;;;;;;;;;;;;;;;;;;;;;;;;;;770;ppm;Unknown;93;ppm;Unknown;69;ppm;Unknown;;;;82;ppm;Unknown;;;;;;;0,05;ppm;INAA;;;;;;;;;;;;;;;;;;;;;;;;;;;;;;;;;;;;;;;;;;;;;;;;;;;;;;;;;;;;;;;;;;;;;;;;;;;;;;;;;;;;;;;;;;;;;;;;;;;;;;;;;;;;;;;;;;;;;;;;;3,7;ppm;INAA;9,7;ppm;INAA;;;;4,8;ppm;INAA;1,17;ppm;INAA;0,36;ppm;INAA;;;;0,31;ppm;INAA;;;;;;;;;;;;;1,8;ppm;INAA;0,28;ppm;INAA;;;;;;;;;;;;;;;;;;;;;;;;;;;;;;;;;;;;;;;;47;ppm;Unknown;;;;;;;;;;;;;93;ppm;Unknown;4300;ppm;Unknown;1,9;ppm;INAA;69;ppm;Unknown;;;;;;;0,79;ppm;INAA;;;;;;;;;;;;;;;;;;;;;;1,9;ppm;ICP;770;ppm;Unknown;;;;;;;;;;10;ppm;Unknown;12;ppm;Unknown;5;ppm;Unknown;;;;;;;;;;0,05;ppm;INAA;;;;34;ppm;INAA;;;;86;ppm;Unknown;0,56;ppm;INAA;0,36;ppm;INAA;;;;;;;;;;;;;;;;13;ppm;Unknown;82;ppm;Unknown;34;ppm;Unknown;;;;;;;;;;;;;;;;;;;;;;;;;;;;;;;;;;;;;;;;;;;;;;;;
GROSCAMP-W-239872;;GROSSMAN-CAMP;GROSSMAN, 1991;35,9692;-78,8161;0,001;;;CONTINENTAL_RIFT;;;;"ICP; INAA; Unknown";WHOLE ROCK;IGNEOUS:VOLCANIC:MAFIC;DIABASE;;;;;;;;;;;;;;;;;11,3;wt%;Unknown;;;;;;;;;;;;;;;;12,03;wt%;Unknown;;;;1,94;wt%;Unknown;;;;;;;;;;;;;;;;;;;;;;;;;;;;;;;240;ppm;Unknown;63;ppm;Unknown;93;ppm;Unknown;;;;83;ppm;Unknown;;;;;;;0,06;ppm;INAA;;;;;;;;;;;;;;;;;;;;;;;;;;;;;;;;;;;;;;;;;;;;;;;;;;;;;;;;;;;;;;;;;;;;;;;;;;;;;;;;;;;;;;;;;;;;;;;;;;;;;;;;;;;;;;;;;;;;;;;;;3,6;ppm;INAA;7,4;ppm;INAA;;;;4,3;ppm;INAA;1,3;ppm;INAA;0,43;ppm;INAA;;;;0,37;ppm;INAA;;;;;;;;;;;;;2,37;ppm;INAA;0,36;ppm;INAA;;;;;;;;;;;;;;;;;;;;;;;;;;;;;;;;;;;;;;;;68;ppm;Unknown;;;;;;;;;;;;;63;ppm;Unknown;820;ppm;Unknown;0,48;ppm;INAA;93;ppm;Unknown;;;;;;;0,85;ppm;INAA;;;;;;;;;;;;;;;;;;;;;;2,2;ppm;ICP;240;ppm;Unknown;;;;;;;;;;8,7;ppm;Unknown;14;ppm;Unknown;4;ppm;Unknown;;;;2,6;ppm;Unknown;;;;0,06;ppm;INAA;;;;45;ppm;INAA;;;;109;ppm;Unknown;0,85;ppm;INAA;0,35;ppm;INAA;;;;;;;;;;;;;;;;20;ppm;Unknown;83;ppm;Unknown;44;ppm;Unknown;;;;;;;;;;;;;;;;;;;;;;;;;;;;;;;;;;;;;;;;;;;;;;;;
GROSCAMP-W-239873;;GROSSMAN-CAMP;GROSSMAN, 1991;35,9692;-78,8161;0,001;;;CONTINENTAL_RIFT;;;;"ICP; INAA; Unknown";WHOLE ROCK;IGNEOUS:VOLCANIC:MAFIC;DIABASE;;;;;;;;;;;;;;;;;12,27;wt%;Unknown;;;;;;;;;;;;;;;;9,37;wt%;Unknown;;;;1,51;wt%;Unknown;;;;;;;;;;;;;;;;;;;;;;;;;;;;;;;710;ppm;Unknown;95;ppm;Unknown;80;ppm;Unknown;;;;86;ppm;Unknown;;;;;;;0,03;ppm;INAA;;;;;;;;;;;;;;;;;;;;;;;;;;;;;;;;;;;;;;;;;;;;;;;;;;;;;;;;;;;;;;;;;;;;;;;;;;;;;;;;;;;;;;;;;;;;;;;;;;;;;;;;;;;;;;;;;;;;;;;;;3,3;ppm;INAA;8;ppm;INAA;;;;4;ppm;INAA;1,1;ppm;INAA;0,38;ppm;INAA;;;;0,32;ppm;INAA;;;;;;;;;;;;;2,06;ppm;INAA;0,31;ppm;INAA;;;;;;;;;;;;;;;;;;;;;;;;;;;;;;;;;;;;;;;;56;ppm;Unknown;;;;;;;;;;;;;95;ppm;Unknown;1540;ppm;Unknown;1,2;ppm;INAA;80;ppm;Unknown;;;;;;;0,71;ppm;INAA;;;;;;;;;;;;;;;;;;;;;;1,8;ppm;ICP;710;ppm;Unknown;;;;;;;;;;14;ppm;Unknown;20;ppm;Unknown;9,1;ppm;Unknown;;;;;;;;;;0,03;ppm;INAA;;;;38;ppm;INAA;;;;74;ppm;Unknown;0,72;ppm;INAA;0,29;ppm;INAA;;;;;;;;;;;;;;;;14;ppm;Unknown;86;ppm;Unknown;37;ppm;Unknown;;;;;;;;;;;;;;;;;;;;;;;;;;;;;;;;;;;;;;;;;;;;;;;;
GROSCAMP-W-239874;;GROSSMAN-CAMP;GROSSMAN, 1991;35,9692;-78,8161;0,001;;;CONTINENTAL_RIFT;;;;"ICP; INAA; Unknown";WHOLE ROCK;IGNEOUS:VOLCANIC:MAFIC;DIABASE;;;;;;;;;;;;;;;;;11,96;wt%;Unknown;;;;;;;;;;;;;;;;8,67;wt%;Unknown;;;;1,35;wt%;Unknown;;;;;;;;;;;;;;;;;;;;;;;;;;;;;;;720;ppm;Unknown;86;ppm;Unknown;85;ppm;Unknown;;;;80;ppm;Unknown;;;;;;;0,02;ppm;INAA;;;;;;;;;;;;;;;;;;;;;;;;;;;;;;;;;;;;;;;;;;;;;;;;;;;;;;;;;;;;;;;;;;;;;;;;;;;;;;;;;;;;;;;;;;;;;;;;;;;;;;;;;;;;;;;;;;;;;;;;;3;ppm;INAA;6,1;ppm;INAA;;;;4;ppm;INAA;1,1;ppm;INAA;0,37;ppm;INAA;;;;0,3;ppm;INAA;;;;;;;;;;;;;1,96;ppm;INAA;0,3;ppm;INAA;;;;;;;;;;;;;;;;;;;;;;;;;;;;;;;;;;;;;;;;47;ppm;Unknown;;;;;;;;;;;;;86;ppm;Unknown;1450;ppm;Unknown;1,5;ppm;INAA;85;ppm;Unknown;;;;;;;0,62;ppm;INAA;;;;;;;;;;;;;;;;;;;;;;1,7;ppm;ICP;720;ppm;Unknown;;;;;;;;;;14;ppm;Unknown;22;ppm;Unknown;5;ppm;Unknown;;;;;;;;;;0,02;ppm;INAA;;;;37;ppm;INAA;;;;89;ppm;Unknown;0,41;ppm;INAA;0,3;ppm;INAA;;;;;;;;;;;;;;;;22;ppm;Unknown;80;ppm;Unknown;39;ppm;Unknown;;;;;;;;;;;;;;;;;;;;;;;;;;;;;;;;;;;;;;;;;;;;;;;;
GROSCAMP-W-239876;;GROSSMAN-CAMP;GROSSMAN, 1991;35,9692;-78,8161;0,001;;;CONTINENTAL_RIFT;;;;"ICP; INAA; Unknown";WHOLE ROCK;IGNEOUS:VOLCANIC:MAFIC;DIABASE;;;;;;;;;;;;;;;;;12,08;wt%;Unknown;;;;;;;;;;;;;;;;9,37;wt%;Unknown;;;;1,46;wt%;Unknown;;;;;;;;;;;;;;;;;;;;;;;;;;;;;;;650;ppm;Unknown;81;ppm;Unknown;87;ppm;Unknown;;;;87;ppm;Unknown;;;;;;;;;;;;;;;;;;;;;;;;;;;;;;;;;;;;;;;;;;;;;;;;;;;;;;;;;;;;;;;;;;;;;;;;;;;;;;;;;;;;;;;;;;;;;;;;;;;;;;;;;;;;;;;;;;;;;;;;;;;;;;;;;;2,5;ppm;INAA;5,8;ppm;INAA;;;;4,1;ppm;INAA;1,03;ppm;INAA;0,36;ppm;INAA;;;;0,32;ppm;INAA;;;;;;;;;;;;;1,9;ppm;INAA;0,299;ppm;INAA;;;;;;;;;;;;;;;;;;;;;;;;;;;;;;;;;;;;;;;;41;ppm;Unknown;;;;;;;;;;;;;81;ppm;Unknown;1620;ppm;Unknown;1,1;ppm;INAA;87;ppm;Unknown;;;;;;;0,65;ppm;INAA;;;;;;;;;;;;;;;;;;;;;;1,8;ppm;ICP;650;ppm;Unknown;;;;;;;;;;12;ppm;Unknown;15;ppm;Unknown;;;;;;;;;;;;;;;;;;;38;ppm;INAA;;;;101;ppm;Unknown;0,28;ppm;INAA;;;;;;;;;;;;;;;;;;;16;ppm;Unknown;87;ppm;Unknown;34;ppm;Unknown;;;;;;;;;;;;;;;;;;;;;;;;;;;;;;;;;;;;;;;;;;;;;;;;
GROSCAMP-W-239877;;GROSSMAN-CAMP;GROSSMAN, 1991;35,9692;-78,8161;0,001;;;CONTINENTAL_RIFT;;;;"ICP; INAA; Unknown";WHOLE ROCK;IGNEOUS:VOLCANIC:MAFIC;DIABASE;;;;;;;;;;;;;;;;;10,34;wt%;Unknown;;;;;;;;;;;;;;;;11,75;wt%;Unknown;;;;1,36;wt%;Unknown;;;;;;;;;;;;;;;;;;;;;;;;;;;;;;;300;ppm;Unknown;56;ppm;Unknown;72;ppm;Unknown;;;;73;ppm;Unknown;2,3;ppm;INAA;;;;;;;;;;;;;;;;;;;;;;;;;;;;;;;;;;;;;;;;;;;;;;;;;;;;;;;;;;;;;;;;;;;;;;;;;;;;;;;;;;;;;;;;;;;;;;;;;;;;;;;;;;;;;;;;;;;;;;;;;;;;;;;2,4;ppm;INAA;6,3;ppm;INAA;;;;3,4;ppm;INAA;1,04;ppm;INAA;0,36;ppm;INAA;;;;0,31;ppm;INAA;;;;;;;;;;;;;1,93;ppm;INAA;0,3;ppm;INAA;;;;;;;;;;;;;;;;;;;;;;;;;;;;;;;2,3;ppm;INAA;;;;;;;28;ppm;Unknown;;;;;;;;;;;;;56;ppm;Unknown;1010;ppm;Unknown;0,59;ppm;INAA;72;ppm;Unknown;;;;;;;0,68;ppm;INAA;;;;;;;;;;;;;;;;;;;;;;1,3;ppm;ICP;300;ppm;Unknown;;;;;;;;;;8,8;ppm;Unknown;16;ppm;Unknown;4;ppm;Unknown;;;;1,2;ppm;Unknown;;;;;;;;;;36;ppm;INAA;;;;103;ppm;Unknown;0,16;ppm;INAA;0,29;ppm;INAA;;;;;;;;;;;;;;;;16;ppm;Unknown;73;ppm;Unknown;36;ppm;Unknown;;;;;;;;;;;;;;;;;;;;;;;;;2,3;ppm;INAA;2,3;ppm;INAA;;;;;;;;;;;;;;;;;;
GROSCAMP-W-246938;;GROSSMAN-CAMP;GROSSMAN, 1991;38,526;-78,014;0,001;;;CONTINENTAL_RIFT;;;;"ICP; Unknown";WHOLE ROCK;IGNEOUS:VOLCANIC:MAFIC;DIABASE;;;;;;;;;;;;;;;;;;;;;;;;;;;;;;;;;;;;;;;;;;;;;;;;;;;;;;;;;;;;;;;;;;;;;;;;;;20;ppm;Unknown;40;ppm;Unknown;230;ppm;Unknown;;;;;;;;;;;;;;;;;;;;;;;;;;;;;;;;;;;;;;;;;;;;;;;;;;;;;;;;;;;;;;;;;;;;;;;;;;;;;;;;;;;;;;;;;;;;;;;;;;;;;;;;;;;;;;;;;;;;;;;;;;;;;;;;;;;;;;;;;;;;;;;;;;;;;;;;;;;;;;;;;;;;;;;;;;;;;;;;;;;;;;;;;;;;;;;;;;;;;;;;;;;;;;;;;;;;;;;;;;;;;;;;;;;;;;;;40;ppm;Unknown;;;;;;;230;ppm;Unknown;;;;;;;;;;;;;;;;;;;;;;;;;;;;;;;;;;20;ppm;Unknown;;;;;;;;;;32;ppm;Unknown;6,3;ppm;Unknown;;;;;;;;;;;;;;;;;;;;;;;;;;;;;;;;;;;;;;;;;;;350;ppm;ICP;;;;;;;;;;;;;;;;;;;;;;;;;;;;;;;;;;;;;;;;;;;;;;;;;;;;;;;;;;;;