SAMPLE ID;IGSN;EXPEDITION ID;REFERENCES;LATITUDE;LONGITUDE;LOC PREC;MIN ELEVATION;MAX ELEVATION;TECTONIC SETTING;MIN AGE;AGE;MAX AGE;METHOD;ANALYZED MATERIAL;ROCK TYPE;ROCK NAME;MINERAL;SIO2;SIO2 Units;SIO2 Method;TIO2;TIO2 Units;TIO2 Method;AL2O3;AL2O3 Units;AL2O3 Method;CR2O3;CR2O3 Units;CR2O3 Method;FE2O3;FE2O3 Units;FE2O3 Method;FE2O3T;FE2O3T Units;FE2O3T Method;FEO;FEO Units;FEO Method;FEOT;FEOT Units;FEOT Method;NIO;NIO Units;NIO Method;MNO;MNO Units;MNO Method;MGO;MGO Units;MGO Method;CAO;CAO Units;CAO Method;SRO;SRO Units;SRO Method;NA2O;NA2O Units;NA2O Method;K2O;K2O Units;K2O Method;P2O5;P2O5 Units;P2O5 Method;BAO;BAO Units;BAO Method;LOI;LOI Units;LOI Method;H2O;H2O Units;H2O Method;H2O_M;H2O_M Units;H2O_M Method;H2O_P;H2O_P Units;H2O_P Method;SO3;SO3 Units;SO3 Method;COO;COO Units;COO Method;MN;MN Units;MN Method;NI;NI Units;NI Method;CO;CO Units;CO Method;CU;CU Units;CU Method;CD;CD Units;CD Method;ZN;ZN Units;ZN Method;AS;AS Units;AS Method;AG;AG Units;AG Method;S;S Units;S Method;ZRO2;ZRO2 Units;ZRO2 Method;AL;AL Units;AL Method;CA;CA Units;CA Method;SR87_SR86;SR87_SR86 Units;SR87_SR86 Method;SR87_SR86_INI;SR87_SR86_INI Units;SR87_SR86_INI Method;RB87_SR86;RB87_SR86 Units;RB87_SR86 Method;ND143_ND144;ND143_ND144 Units;ND143_ND144 Method;ND143_ND144_INI;ND143_ND144_INI Units;ND143_ND144_INI Method;SM147_ND144;SM147_ND144 Units;SM147_ND144 Method;E_ND;E_ND Units;E_ND Method;E_ND_INI;E_ND_INI Units;E_ND_INI Method;PB204_PB206;PB204_PB206 Units;PB204_PB206 Method;PB206_PB204;PB206_PB204 Units;PB206_PB204 Method;PB206_PB204_INI;PB206_PB204_INI Units;PB206_PB204_INI Method;PB207_PB204;PB207_PB204 Units;PB207_PB204 Method;PB207_PB204_INI;PB207_PB204_INI Units;PB207_PB204_INI Method;PB207_PB206;PB207_PB206 Units;PB207_PB206 Method;PB208_PB204;PB208_PB204 Units;PB208_PB204 Method;PB208_PB204_INI;PB208_PB204_INI Units;PB208_PB204_INI Method;PB208_PB206;PB208_PB206 Units;PB208_PB206 Method;HF176_HF177;HF176_HF177 Units;HF176_HF177 Method;RE187_OS188;RE187_OS188 Units;RE187_OS188 Method;OS187_OS188;OS187_OS188 Units;OS187_OS188 Method;OS187_OS188_INI;OS187_OS188_INI Units;OS187_OS188_INI Method;G_OS;G_OS Units;G_OS Method;G_OS_INI;G_OS_INI Units;G_OS_INI Method;ND143_ND144_INI;ND143_ND144_INI Units;ND143_ND144_INI Method;PB206_PB204_INI;PB206_PB204_INI Units;PB206_PB204_INI Method;PB207_PB204_INI;PB207_PB204_INI Units;PB207_PB204_INI Method;PB208_PB204_INI;PB208_PB204_INI Units;PB208_PB204_INI Method;SR87_SR86_INI;SR87_SR86_INI Units;SR87_SR86_INI Method;HE;HE Units;HE Method;HE3;HE3 Units;HE3 Method;HE3_HE4_R_RA;HE3_HE4_R_RA Units;HE3_HE4_R_RA Method;AR36;AR36 Units;AR36 Method;AR40;AR40 Units;AR40 Method;AR40_AR36;AR40_AR36 Units;AR40_AR36 Method;NE20;NE20 Units;NE20 Method;NE20_NE22;NE20_NE22 Units;NE20_NE22 Method;NE21_NE22;NE21_NE22 Units;NE21_NE22 Method;LA;LA Units;LA Method;CE;CE Units;CE Method;PR;PR Units;PR Method;ND;ND Units;ND Method;SM;SM Units;SM Method;EU;EU Units;EU Method;GD;GD Units;GD Method;TB;TB Units;TB Method;DY;DY Units;DY Method;HO;HO Units;HO Method;ER;ER Units;ER Method;TM;TM Units;TM Method;YB;YB Units;YB Method;LU;LU Units;LU Method;CO2;CO2 Units;CO2 Method;F;F Units;F Method;CL;CL Units;CL Method;U238_PB204;U238_PB204 Units;U238_PB204 Method;TH230_TH232;TH230_TH232 Units;TH230_TH232 Method;RA226_ACTIVITY;RA226_ACTIVITY Units;RA226_ACTIVITY Method;PB210_RA226;PB210_RA226 Units;PB210_RA226 Method;PB210_ACTIVITY;PB210_ACTIVITY Units;PB210_ACTIVITY Method;AG;AG Units;AG Method;AL;AL Units;AL Method;AS;AS Units;AS Method;AU;AU Units;AU Method;B;B Units;B Method;BA;BA Units;BA Method;BE;BE Units;BE Method;BI;BI Units;BI Method;CA;CA Units;CA Method;CD;CD Units;CD Method;CO;CO Units;CO Method;CR;CR Units;CR Method;CS;CS Units;CS Method;CU;CU Units;CU Method;GA;GA Units;GA Method;GER;GER Units;GER Method;HF;HF Units;HF Method;INDIUM;INDIUM Units;INDIUM Method;IR;IR Units;IR Method;K;K Units;K Method;LI;LI Units;LI Method;MN;MN Units;MN Method;MO;MO Units;MO Method;NA;NA Units;NA Method;NB;NB Units;NB Method;NI;NI Units;NI Method;OS;OS Units;OS Method;P;P Units;P Method;PB;PB Units;PB Method;PD;PD Units;PD Method;PT;PT Units;PT Method;RB;RB Units;RB Method;RE;RE Units;RE Method;RH;RH Units;RH Method;RU;RU Units;RU Method;S;S Units;S Method;SB;SB Units;SB Method;SC;SC Units;SC Method;SN;SN Units;SN Method;SR;SR Units;SR Method;TA;TA Units;TA Method;TH;TH Units;TH Method;TI;TI Units;TI Method;TL;TL Units;TL Method;U;U Units;U Method;V;V Units;V Method;W;W Units;W Method;Y;Y Units;Y Method;ZN;ZN Units;ZN Method;ZR;ZR Units;ZR Method;DELTA_O18;DELTA_O18 Units;DELTA_O18 Method;DELTA_C13;DELTA_C13 Units;DELTA_C13 Method;DELTA_MO98;DELTA_MO98 Units;DELTA_MO98 Method;DELTA_ZN66;DELTA_ZN66 Units;DELTA_ZN66 Method;DELTA_ZN68;DELTA_ZN68 Units;DELTA_ZN68 Method;OS188;OS188 Units;OS188 Method;FE3P_FET;FE3P_FET Units;FE3P_FET Method;TI;TI Units;TI Method;AS;AS Units;AS Method;AS;AS Units;AS Method;GER;GER Units;GER Method;H2O_M;H2O_M Units;H2O_M Method;H2O_P;H2O_P Units;H2O_P Method;H2O_M;H2O_M Units;H2O_M Method;H2O_P;H2O_P Units;H2O_P Method;INDIUM;INDIUM Units;INDIUM Method
GROSCAMP-W-243092;;GROSSMAN-CAMP;GROSSMAN, 1991;40,33;-74,87;1;;;CONTINENTAL_RIFT;;;;"ICP; INAA; Unknown";WHOLE ROCK;IGNEOUS:VOLCANIC:FELSIC;GRANOPHYRE;;;;;;;;;;;;;;;;;11,45;wt%;Unknown;;;;;;;;;;;;;;;;9,09;wt%;Unknown;;;;2,04;wt%;Unknown;;;;;;;;;;;;;;;;;;;;;;;;;;;;;;;100;ppm;Unknown;52;ppm;Unknown;114;ppm;Unknown;;;;76;ppm;Unknown;;;;;;;0,03;ppm;INAA;;;;;;;;;;;;;;;;;;;;;;;;;;;;;;;;;;;;;;;;;;;;;;;;;;;;;;;;;;;;;;;;;;;;;;;;;;;;;;;;;;;;;;;;;;;;;;;;;;;;;;;;;;;;;;;;;;;;;;;;;10;ppm;INAA;22,1;ppm;INAA;;;;12;ppm;INAA;3,2;ppm;INAA;1;ppm;INAA;;;;0,6;ppm;INAA;;;;;;;;;;;;;2;ppm;INAA;0,29;ppm;INAA;;;;0,02;ppm;INAA;0,01;ppm;INAA;;;;;;;;;;;;;;;;;;;;;;;;;;;;;;;190;ppm;Unknown;;;;;;;;;;;;;52;ppm;Unknown;330;ppm;Unknown;0,88;ppm;INAA;114;ppm;Unknown;;;;;;;2,4;ppm;INAA;;;;;;;;;;;;;;;;;;;;;;9,5;ppm;ICP;100;ppm;Unknown;;;;;;;;;;0,5;ppm;Unknown;1;ppm;Unknown;37;ppm;Unknown;;;;;;;;;;0,03;ppm;INAA;;;;36;ppm;INAA;;;;190;ppm;Unknown;;;;2;ppm;INAA;;;;;;;;;;;;;;;;35;ppm;Unknown;76;ppm;Unknown;107;ppm;Unknown;;;;;;;;;;;;;;;;;;;;;;;;;;;;;;;;;;;;;;;;;;;;;;;;
GROSCAMP-W-243093;;GROSSMAN-CAMP;GROSSMAN, 1991;40,33;-74,87;1;;;CONTINENTAL_RIFT;;;;"ICP; INAA; Unknown";WHOLE ROCK;IGNEOUS:VOLCANIC:MAFIC;DIABASE;;;;;;;;;;;;;;;;;11,45;wt%;Unknown;;;;;;;;;;;;;;;;10,49;wt%;Unknown;;;;2,36;wt%;Unknown;;;;;;;;;;;;;;;;;;;;;;;;;;;;;;;82;ppm;Unknown;53;ppm;Unknown;130;ppm;Unknown;;;;88;ppm;Unknown;;;;;;;0,05;ppm;INAA;;;;;;;;;;;;;;;;;;;;;;;;;;;;;;;;;;;;;;;;;;;;;;;;;;;;;;;;;;;;;;;;;;;;;;;;;;;;;;;;;;;;;;;;;;;;;;;;;;;;;;;;;;;;;;;;;;;;;;;;;11;ppm;INAA;23,2;ppm;INAA;;;;13;ppm;INAA;3,3;ppm;INAA;1;ppm;INAA;;;;0,64;ppm;INAA;;;;;;;;;;;;;2,1;ppm;INAA;0,33;ppm;INAA;;;;0,02;ppm;INAA;0,05;ppm;INAA;;;;;;;;;;;;;;;;;;;;;;;;;;;;;;;148;ppm;Unknown;;;;;;;;;;;;;53;ppm;Unknown;340;ppm;Unknown;0,92;ppm;INAA;130;ppm;Unknown;;;;;;;2,6;ppm;INAA;;;;;;;;;;;;;;;;;;;;;;11;ppm;ICP;82;ppm;Unknown;;;;;;;;;;1;ppm;Unknown;2,8;ppm;Unknown;34;ppm;Unknown;;;;;;;;;;0,05;ppm;INAA;;;;39;ppm;INAA;;;;195;ppm;Unknown;;;;2,4;ppm;INAA;;;;;;;0,6;ppm;INAA;;;;;;;30;ppm;Unknown;88;ppm;Unknown;106;ppm;Unknown;;;;;;;;;;;;;;;;;;;;;;;;;;;;;;;;;;;;;;;;;;;;;;;;
GROSCAMP-W-243094;;GROSSMAN-CAMP;GROSSMAN, 1991;40,34;-74,92;0,001;;;CONTINENTAL_RIFT;;;;"ICP; INAA; Unknown";WHOLE ROCK;IGNEOUS:PLUTONIC:MAFIC;GABBRO;;;;;;;;;;;;;;;;;12,66;wt%;Unknown;;;;;;;;;;;;;;;;8,11;wt%;Unknown;;;;3,63;wt%;Unknown;;;;;;;;;;;;;;;;;;;;;;;;;;;;;;;36;ppm;Unknown;44;ppm;Unknown;180;ppm;Unknown;;;;114;ppm;Unknown;2,8;ppm;INAA;;;;0,04;ppm;INAA;;;;;;;;;;;;;;;;;;;;;;;;;;;;;;;;;;;;;;;;;;;;;;;;;;;;;;;;;;;;;;;;;;;;;;;;;;;;;;;;;;;;;;;;;;;;;;;;;;;;;;;;;;;;;;;;;;;;;;;;;14,8;ppm;INAA;31;ppm;INAA;;;;16;ppm;INAA;4,4;ppm;INAA;1,45;ppm;INAA;;;;0,78;ppm;INAA;;;;;;;;;;;;;2,7;ppm;INAA;0,38;ppm;INAA;;;;0,03;ppm;INAA;0,21;ppm;INAA;;;;;;;;;;;;;;;;;;;;;;2,8;ppm;INAA;;;;;;;300;ppm;Unknown;;;;;;;;;;;;;44;ppm;Unknown;11;ppm;Unknown;1,1;ppm;INAA;180;ppm;Unknown;;;;;;;3,3;ppm;INAA;;;;;;;;;;;;;;;;;;;;;;11;ppm;ICP;36;ppm;Unknown;;;;;;;;;;6;ppm;Unknown;3,1;ppm;Unknown;55;ppm;Unknown;;;;;;;;;;0,04;ppm;INAA;0,49;ppm;INAA;33;ppm;INAA;;;;245;ppm;Unknown;1,8;ppm;INAA;3,1;ppm;INAA;;;;;;;0,62;ppm;INAA;;;;;;;27;ppm;Unknown;114;ppm;Unknown;132;ppm;Unknown;;;;;;;;;;;;;;;;;;;;;;;;;2,8;ppm;INAA;2,8;ppm;INAA;;;;;;;;;;;;;;;;;;
GROSCAMP-W-243095;;GROSSMAN-CAMP;GROSSMAN, 1991;40,33;-74,806;0,001;;;CONTINENTAL_RIFT;;;;"ICP; INAA; Unknown";WHOLE ROCK;IGNEOUS:PLUTONIC:MAFIC;GABBRO;;;;;;;;;;;;;;;;;12,9;wt%;Unknown;;;;;;;;;;;;;;;;9,23;wt%;Unknown;;;;2,88;wt%;Unknown;;;;;;;;;;;;;;;;;;;;;;;;;;;;;;;30;ppm;Unknown;45;ppm;Unknown;194;ppm;Unknown;;;;108;ppm;Unknown;1,9;ppm;INAA;;;;0,04;ppm;INAA;;;;;;;;;;;;;;;;;;;;;;;;;;;;;;;;;;;;;;;;;;;;;;;;;;;;;;;;;;;;;;;;;;;;;;;;;;;;;;;;;;;;;;;;;;;;;;;;;;;;;;;;;;;;;;;;;;;;;;;;;16,7;ppm;INAA;33;ppm;INAA;;;;17;ppm;INAA;5;ppm;INAA;1,4;ppm;INAA;;;;0,92;ppm;INAA;;;;;;;;;;;;;3;ppm;INAA;0,44;ppm;INAA;;;;0,03;ppm;INAA;0,1;ppm;INAA;;;;;;;;;;;;;;;;;;;;;;1,9;ppm;INAA;;;;;;;235;ppm;Unknown;;;;;;;;;;;;;45;ppm;Unknown;7,6;ppm;Unknown;1,1;ppm;INAA;194;ppm;Unknown;;;;;;;3,7;ppm;INAA;;;;;;;;;;;;;;;;;;;;;;14;ppm;ICP;30;ppm;Unknown;;;;;;;;;;5,2;ppm;Unknown;3;ppm;Unknown;37;ppm;Unknown;;;;;;;;;;0,04;ppm;INAA;0,4;ppm;INAA;32;ppm;INAA;;;;257;ppm;Unknown;2,1;ppm;INAA;3,6;ppm;INAA;;;;;;;0,82;ppm;INAA;;;;;;;40;ppm;Unknown;108;ppm;Unknown;159;ppm;Unknown;;;;;;;;;;;;;;;;;;;;;;;;;1,9;ppm;INAA;1,9;ppm;INAA;;;;;;;;;;;;;;;;;;
GROSCAMP-W-243096;;GROSSMAN-CAMP;GROSSMAN, 1991;40,33;-74,806;0,001;;;CONTINENTAL_RIFT;;;;"ICP; INAA; Unknown";WHOLE ROCK;IGNEOUS:VOLCANIC:FELSIC;GRANOPHYRE;;;;;;;;;;;;;;;;;14,59;wt%;Unknown;;;;;;;;;;;;;;;;5,32;wt%;Unknown;;;;3,34;wt%;Unknown;;;;;;;;;;;;;;;;;;;;;;;;;;;;;;;;;;35;ppm;Unknown;310;ppm;Unknown;;;;187;ppm;Unknown;5,5;ppm;INAA;;;;0,08;ppm;INAA;;;;;;;;;;;;;;;;;;;;;;;;;;;;;;;;;;;;;;;;;;;;;;;;;;;;;;;;;;;;;;;;;;;;;;;;;;;;;;;;;;;;;;;;;;;;;;;;;;;;;;;;;;;;;;;;;;;;;;;;;43;ppm;INAA;88;ppm;INAA;;;;41;ppm;INAA;11,8;ppm;INAA;2,88;ppm;INAA;;;;2,03;ppm;INAA;;;;;;;;;;;;;6,7;ppm;INAA;0,92;ppm;INAA;;;;0,02;ppm;INAA;0,3;ppm;INAA;;;;;;;;;;;;;;;;;;;;;;5,5;ppm;INAA;;;;;;;580;ppm;Unknown;;;;;;;;;;;;;35;ppm;Unknown;2,8;ppm;Unknown;5;ppm;INAA;310;ppm;Unknown;;;;;;;9,2;ppm;INAA;;;;;;;;;;;;;;;;;;;;;;35;ppm;ICP;;;;;;;;;;;;;0,5;ppm;Unknown;;;;79;ppm;Unknown;;;;;;;;;;0,08;ppm;INAA;0,75;ppm;INAA;22,4;ppm;INAA;;;;175;ppm;Unknown;12,2;ppm;INAA;9;ppm;INAA;;;;;;;1,9;ppm;INAA;;;;;;;87;ppm;Unknown;187;ppm;Unknown;310;ppm;Unknown;;;;;;;;;;;;;;;;;;;;;;;;;5,5;ppm;INAA;5,5;ppm;INAA;;;;;;;;;;;;;;;;;;
GROSCAMP-W-243097;;GROSSMAN-CAMP;GROSSMAN, 1991;40,33;-74,87;1;;;CONTINENTAL_RIFT;;;;"ICP; INAA; Unknown";WHOLE ROCK;IGNEOUS:PLUTONIC:MAFIC;GABBRO;;;;;;;;;;;;;;;;;18,31;wt%;Unknown;;;;;;;;;;;;;;;;5,04;wt%;Unknown;;;;3,85;wt%;Unknown;;;;;;;;;;;;;;;;;;;;;;;;;;;;;;;6;ppm;Unknown;40;ppm;Unknown;470;ppm;Unknown;;;;180;ppm;Unknown;10;ppm;INAA;;;;0,06;ppm;INAA;;;;;;;;;;;;;;;;;;;;;;;;;;;;;;;;;;;;;;;;;;;;;;;;;;;;;;;;;;;;;;;;;;;;;;;;;;;;;;;;;;;;;;;;;;;;;;;;;;;;;;;;;;;;;;;;;;;;;;;;;29,3;ppm;INAA;60;ppm;INAA;;;;31;ppm;INAA;8,9;ppm;INAA;2,68;ppm;INAA;;;;1,5;ppm;INAA;;;;;;;;;;;;;5;ppm;INAA;0,7;ppm;INAA;;;;0,09;ppm;INAA;0,35;ppm;INAA;;;;;;;;;;;;;;;;;;;;;;10;ppm;INAA;15;ppm;INAA;;;;440;ppm;Unknown;;;;;;;;;;;;;40;ppm;Unknown;2,5;ppm;Unknown;1,6;ppm;INAA;470;ppm;Unknown;;;;;;;5,7;ppm;INAA;;;;;;;;;;;;;;;;;;;;;;20;ppm;ICP;6;ppm;Unknown;;;;;;;;;;2,9;ppm;Unknown;;;;58;ppm;Unknown;;;;;;;;;;0,06;ppm;INAA;0,67;ppm;INAA;31;ppm;INAA;;;;200;ppm;Unknown;2,2;ppm;INAA;5;ppm;INAA;;;;;;;1,2;ppm;INAA;;;;;;;62;ppm;Unknown;180;ppm;Unknown;224;ppm;Unknown;;;;;;;;;;;;;;;;;;;;;;;;;10;ppm;INAA;10;ppm;INAA;;;;;;;;;;;;;;;;;;
GROSCAMP-W-243098;;GROSSMAN-CAMP;GROSSMAN, 1991;40,1;-74,1;0,001;;;CONTINENTAL_RIFT;;;;"ICP; INAA; Unknown";WHOLE ROCK;IGNEOUS:VOLCANIC:MAFIC;DIABASE;;;;;;;;;;;;;;;;;11,68;wt%;Unknown;;;;;;;;;;;;;;;;10,77;wt%;Unknown;;;;2,04;wt%;Unknown;;;;;;;;;;;;;;;;;;;;;;;;;;;;;;;91;ppm;Unknown;53;ppm;Unknown;98;ppm;Unknown;;;;67;ppm;Unknown;2,1;ppm;INAA;;;;0,03;ppm;INAA;;;;;;;;;;;;;;;;;;;;;;;;;;;;;;;;;;;;;;;;;;;;;;;;;;;;;;;;;;;;;;;;;;;;;;;;;;;;;;;;;;;;;;;;;;;;;;;;;;;;;;;;;;;;;;;;;;;;;;;;;10,5;ppm;INAA;22;ppm;INAA;;;;11;ppm;INAA;3,3;ppm;INAA;1,02;ppm;INAA;;;;0,6;ppm;INAA;;;;;;;;;;;;;2,2;ppm;INAA;0,29;ppm;INAA;;;;0,02;ppm;INAA;0,01;ppm;INAA;;;;;;;;;;;;;;;;;;;;;;2,1;ppm;INAA;;;;;;;147;ppm;Unknown;;;;;;;;;;;;;53;ppm;Unknown;380;ppm;Unknown;0,8;ppm;INAA;98;ppm;Unknown;;;;;;;2,4;ppm;INAA;;;;;;;;;;;;;;;;;;;;;;8,7;ppm;ICP;91;ppm;Unknown;;;;;;;;;;1,8;ppm;Unknown;3,1;ppm;Unknown;23;ppm;Unknown;;;;;;;;;;0,03;ppm;INAA;;;;38;ppm;INAA;;;;190;ppm;Unknown;2,75;ppm;INAA;2,1;ppm;INAA;;;;;;;;;;;;;;;;35;ppm;Unknown;67;ppm;Unknown;102;ppm;Unknown;;;;;;;;;;;;;;;;;;;;;;;;;2,1;ppm;INAA;2,1;ppm;INAA;;;;;;;;;;;;;;;;;;
GROSCAMP-W-246942;;GROSSMAN-CAMP;GROSSMAN, 1991;38,526;-78,014;0,001;;;CONTINENTAL_RIFT;;;;"ICP; Unknown";WHOLE ROCK;IGNEOUS:VOLCANIC:MAFIC;DIABASE;;;;;;;;;;;;;;;;;;;;;;;;;;;;;;;;;;;;;;;;;;;;;;;;;;;;;;;;;;;;;;;;;;;;;;;;;;23;ppm;Unknown;42;ppm;Unknown;190;ppm;Unknown;;;;;;;;;;;;;;;;;;;;;;;;;;;;;;;;;;;;;;;;;;;;;;;;;;;;;;;;;;;;;;;;;;;;;;;;;;;;;;;;;;;;;;;;;;;;;;;;;;;;;;;;;;;;;;;;;;;;;;;;;;;;;;;;;;;;;;;;;;;;;;;;;;;;;;;;;;;;;;;;;;;;;;;;;;;;;;;;;;;;;;;;;;;;;;;;;;;;;;;;;;;;;;;;;;;;;;;;;;;;;;;;;;;;;;;;42;ppm;Unknown;;;;;;;190;ppm;Unknown;;;;;;;;;;;;;;;;;;;;;;;;;;;;;;;;;;23;ppm;Unknown;;;;;;;;;;25;ppm;Unknown;7,1;ppm;Unknown;;;;;;;;;;;;;;;;;;;;;;;;;;;;;;;;;;;;;;;;;;;420;ppm;ICP;;;;;;;;;;;;;;;;;;;;;;;;;;;;;;;;;;;;;;;;;;;;;;;;;;;;;;;;;;;;
GROSCAMP-W-243099;;GROSSMAN-CAMP;GROSSMAN, 1991;40,1;-74,1;0,001;;;CONTINENTAL_RIFT;;;;"ICP; INAA; Unknown";WHOLE ROCK;IGNEOUS:VOLCANIC:MAFIC;DIABASE;;;;;;;;;;;;;;;;;12,13;wt%;Unknown;;;;;;;;;;;;;;;;9,79;wt%;Unknown;;;;1,28;wt%;Unknown;;;;;;;;;;;;;;;;;;;;;;;;;;;;;;;200;ppm;Unknown;70;ppm;Unknown;71;ppm;Unknown;;;;69;ppm;Unknown;;;;;;;0,02;ppm;INAA;;;;;;;;;;;;;;;;;;;;;;;;;;;;;;;;;;;;;;;;;;;;;;;;;;;;;;;;;;;;;;;;;;;;;;;;;;;;;;;;;;;;;;;;;;;;;;;;;;;;;;;;;;;;;;;;;;;;;;;;;6,1;ppm;INAA;13;ppm;INAA;;;;7,7;ppm;INAA;2,1;ppm;INAA;0,62;ppm;INAA;;;;0,38;ppm;INAA;;;;;;;;;;;;;1,4;ppm;INAA;0,22;ppm;INAA;;;;0,01;ppm;INAA;0,01;ppm;INAA;;;;;;;;;;;;;;;;;;;;;;;;;;;;;;;79;ppm;Unknown;;;;;;;;;;;;;70;ppm;Unknown;960;ppm;Unknown;0,61;ppm;INAA;71;ppm;Unknown;;;;;;;1,4;ppm;INAA;;;;;;;;;;;;;;;;;;;;;;7;ppm;ICP;200;ppm;Unknown;;;;;;;;;;2;ppm;Unknown;5,9;ppm;Unknown;14;ppm;Unknown;;;;;;;;;;0,02;ppm;INAA;;;;39;ppm;INAA;;;;115;ppm;Unknown;3,7;ppm;INAA;1,3;ppm;INAA;;;;;;;;;;;;;;;;21;ppm;Unknown;69;ppm;Unknown;66;ppm;Unknown;;;;;;;;;;;;;;;;;;;;;;;;;;;;;;;;;;;;;;;;;;;;;;;;
GROSCAMP-W-243101;;GROSSMAN-CAMP;GROSSMAN, 1991;40,33;-74,806;0,001;;;CONTINENTAL_RIFT;;;;"ICP; INAA; Unknown";WHOLE ROCK;IGNEOUS:VOLCANIC:MAFIC;DIABASE;;;;;;;;;;;;;;;;;11,18;wt%;Unknown;;;;;;;;;;;;;;;;10,91;wt%;Unknown;;;;2,59;wt%;Unknown;;;;;;;;;;;;;;;;;;;;;;;;;;;;;;;54;ppm;Unknown;44;ppm;Unknown;117;ppm;Unknown;;;;80;ppm;Unknown;;;;;;;0,04;ppm;INAA;;;;;;;;;;;;;;;;;;;;;;;;;;;;;;;;;;;;;;;;;;;;;;;;;;;;;;;;;;;;;;;;;;;;;;;;;;;;;;;;;;;;;;;;;;;;;;;;;;;;;;;;;;;;;;;;;;;;;;;;;12;ppm;INAA;25;ppm;INAA;;;;13;ppm;INAA;3,7;ppm;INAA;1,18;ppm;INAA;;;;0,72;ppm;INAA;;;;;;;;;;;;;2,3;ppm;INAA;0,36;ppm;INAA;;;;0,02;ppm;INAA;0,03;ppm;INAA;;;;;;;;;;;;;;;;;;;;;;;;;;;;;;;184;ppm;Unknown;;;;;;;;;;;;;44;ppm;Unknown;33;ppm;Unknown;1,4;ppm;INAA;117;ppm;Unknown;;;;;;;2,6;ppm;INAA;;;;;;;;;;;;;;;;;;;;;;10;ppm;ICP;54;ppm;Unknown;;;;;;;;;;5,4;ppm;Unknown;7,8;ppm;Unknown;24;ppm;Unknown;;;;;;;;;;0,04;ppm;INAA;0,2;ppm;INAA;33;ppm;INAA;;;;221;ppm;Unknown;4,1;ppm;INAA;2,5;ppm;INAA;;;;;;;;;;;;;;;;25;ppm;Unknown;80;ppm;Unknown;100;ppm;Unknown;;;;;;;;;;;;;;;;;;;;;;;;;;;;;;;;;;;;;;;;;;;;;;;;
GROSCAMP-W-243102;;GROSSMAN-CAMP;GROSSMAN, 1991;40,4;-74,9;0,001;;;CONTINENTAL_RIFT;;;;"ICP; INAA; Unknown";WHOLE ROCK;IGNEOUS:VOLCANIC:MAFIC;DIABASE;;;;;;;;;;;;;;;;;11,58;wt%;Unknown;;;;;;;;;;;;;;;;11,47;wt%;Unknown;;;;2,02;wt%;Unknown;;;;;;;;;;;;;;;;;;;;;;;;;;;;;;;97;ppm;Unknown;51;ppm;Unknown;118;ppm;Unknown;;;;74;ppm;Unknown;;;;;;;0,04;ppm;INAA;;;;;;;;;;;;;;;;;;;;;;;;;;;;;;;;;;;;;;;;;;;;;;;;;;;;;;;;;;;;;;;;;;;;;;;;;;;;;;;;;;;;;;;;;;;;;;;;;;;;;;;;;;;;;;;;;;;;;;;;;10;ppm;INAA;22,4;ppm;INAA;;;;12;ppm;INAA;3,4;ppm;INAA;1,04;ppm;INAA;;;;0,58;ppm;INAA;;;;;;;;;;;;;2,2;ppm;INAA;0,3;ppm;INAA;;;;0,02;ppm;INAA;0,01;ppm;INAA;;;;;;;;;;;;;;;;;;;;;;;;;;;;;;;174;ppm;Unknown;;;;;;;;;;;;;51;ppm;Unknown;350;ppm;Unknown;0,88;ppm;INAA;118;ppm;Unknown;;;;;;;2,5;ppm;INAA;;;;;;;;;;;;;;;;;;;;;;8,9;ppm;ICP;97;ppm;Unknown;;;;;;;;;;1,9;ppm;Unknown;3,5;ppm;Unknown;25;ppm;Unknown;;;;;;;;;;0,04;ppm;INAA;;;;37;ppm;INAA;;;;204;ppm;Unknown;;;;2,1;ppm;INAA;;;;;;;;;;;;;;;;31;ppm;Unknown;74;ppm;Unknown;109;ppm;Unknown;;;;;;;;;;;;;;;;;;;;;;;;;;;;;;;;;;;;;;;;;;;;;;;;
GROSCAMP-W-243103;;GROSSMAN-CAMP;GROSSMAN, 1991;40,4;-74,9;0,001;;;CONTINENTAL_RIFT;;;;"ICP; INAA; Unknown";WHOLE ROCK;IGNEOUS:VOLCANIC:MAFIC;DIABASE;;;;;;;;;;;;;;;;;10,05;wt%;Unknown;;;;;;;;;;;;;;;;11,47;wt%;Unknown;;;;2,67;wt%;Unknown;;;;;;;;;;;;;;;;;;;;;;;;;;;;;;;51;ppm;Unknown;43;ppm;Unknown;129;ppm;Unknown;;;;65;ppm;Unknown;;;;;;;0,03;ppm;INAA;;;;;;;;;;;;;;;;;;;;;;;;;;;;;;;;;;;;;;;;;;;;;;;;;;;;;;;;;;;;;;;;;;;;;;;;;;;;;;;;;;;;;;;;;;;;;;;;;;;;;;;;;;;;;;;;;;;;;;;;;10;ppm;INAA;20;ppm;INAA;;;;12;ppm;INAA;3,1;ppm;INAA;1,1;ppm;INAA;;;;0,58;ppm;INAA;;;;;;;;;;;;;1,9;ppm;INAA;0,29;ppm;INAA;;;;0,02;ppm;INAA;0,02;ppm;INAA;;;;;;;;;;;;;;;;;;;;;;;;;15;ppm;INAA;;;;152;ppm;Unknown;;;;;;;;;;;;;43;ppm;Unknown;20;ppm;Unknown;0,68;ppm;INAA;129;ppm;Unknown;;;;;;;2,1;ppm;INAA;;;;;;;;;;;;;;;;;;;;;;11;ppm;ICP;51;ppm;Unknown;;;;;;;;;;3,4;ppm;Unknown;4,3;ppm;Unknown;16;ppm;Unknown;;;;;;;;;;0,03;ppm;INAA;;;;30;ppm;INAA;;;;236;ppm;Unknown;;;;2;ppm;INAA;;;;;;;;;;;;;;;;36;ppm;Unknown;65;ppm;Unknown;103;ppm;Unknown;;;;;;;;;;;;;;;;;;;;;;;;;;;;;;;;;;;;;;;;;;;;;;;;
GROSCAMP-W-243104;;GROSSMAN-CAMP;GROSSMAN, 1991;40,4;-74,9;0,001;;;CONTINENTAL_RIFT;;;;"ICP; INAA; Unknown";WHOLE ROCK;IGNEOUS:VOLCANIC:MAFIC;DIABASE;;;;;;;;;;;;;;;;;10,81;wt%;Unknown;;;;;;;;;;;;;;;;11,61;wt%;Unknown;;;;2,26;wt%;Unknown;;;;;;;;;;;;;;;;;;;;;;;;;;;;;;;85;ppm;Unknown;49;ppm;Unknown;98;ppm;Unknown;;;;64;ppm;Unknown;;;;;;;0,01;ppm;INAA;;;;;;;;;;;;;;;;;;;;;;;;;;;;;;;;;;;;;;;;;;;;;;;;;;;;;;;;;;;;;;;;;;;;;;;;;;;;;;;;;;;;;;;;;;;;;;;;;;;;;;;;;;;;;;;;;;;;;;;;;9,6;ppm;INAA;20,4;ppm;INAA;;;;12;ppm;INAA;3;ppm;INAA;0,96;ppm;INAA;;;;0,59;ppm;INAA;;;;;;;;;;;;;1,9;ppm;INAA;0,29;ppm;INAA;;;;0,02;ppm;INAA;0,03;ppm;INAA;;;;;;;;;;;;;;;;;;;;;;;;;;;;;;;118;ppm;Unknown;;;;;;;;;;;;;49;ppm;Unknown;195;ppm;Unknown;0,61;ppm;INAA;98;ppm;Unknown;;;;;;;2,1;ppm;INAA;;;;;;;;;;;;;;;;;;;;;;7,1;ppm;ICP;85;ppm;Unknown;;;;;;;;;;1,4;ppm;Unknown;6,2;ppm;Unknown;12;ppm;Unknown;;;;;;;;;;0,01;ppm;INAA;;;;37;ppm;INAA;;;;191;ppm;Unknown;;;;2;ppm;INAA;;;;;;;;;;;;;;;;22;ppm;Unknown;64;ppm;Unknown;88;ppm;Unknown;;;;;;;;;;;;;;;;;;;;;;;;;;;;;;;;;;;;;;;;;;;;;;;;
GROSCAMP-W-243105;;GROSSMAN-CAMP;GROSSMAN, 1991;40,4;-74,9;0,001;;;CONTINENTAL_RIFT;;;;"ICP; INAA; Unknown";WHOLE ROCK;IGNEOUS:VOLCANIC:MAFIC;DIABASE;;;;;;;;;;;;;;;;;11,87;wt%;Unknown;;;;;;;;;;;;;;;;11,61;wt%;Unknown;;;;1,7;wt%;Unknown;;;;;;;;;;;;;;;;;;;;;;;;;;;;;;;170;ppm;Unknown;62;ppm;Unknown;85;ppm;Unknown;;;;63;ppm;Unknown;0,7;ppm;INAA;;;;0,04;ppm;INAA;;;;;;;;;;;;;;;;;;;;;;;;;;;;;;;;;;;;;;;;;;;;;;;;;;;;;;;;;;;;;;;;;;;;;;;;;;;;;;;;;;;;;;;;;;;;;;;;;;;;;;;;;;;;;;;;;;;;;;;;;8,5;ppm;INAA;19;ppm;INAA;;;;9,9;ppm;INAA;2,76;ppm;INAA;0,88;ppm;INAA;;;;0,58;ppm;INAA;;;;;;;;;;;;;1,8;ppm;INAA;0,26;ppm;INAA;;;;0,02;ppm;INAA;0,01;ppm;INAA;;;;;;;;;;;;;;;;;;;;;;0,7;ppm;INAA;;;;;;;107;ppm;Unknown;;;;;;;;;;;;;62;ppm;Unknown;980;ppm;Unknown;0,78;ppm;INAA;85;ppm;Unknown;;;;;;;1,8;ppm;INAA;;;;;;;;;;;;;;;;;;;;;;7,5;ppm;ICP;170;ppm;Unknown;;;;;;;;;;3,2;ppm;Unknown;6;ppm;Unknown;12;ppm;Unknown;;;;;;;;;;0,04;ppm;INAA;0,16;ppm;INAA;43;ppm;INAA;;;;129;ppm;Unknown;;;;1,6;ppm;INAA;;;;;;;;;;;;;;;;19;ppm;Unknown;63;ppm;Unknown;76;ppm;Unknown;;;;;;;;;;;;;;;;;;;;;;;;;0,7;ppm;INAA;0,7;ppm;INAA;;;;;;;;;;;;;;;;;;