SAMPLE ID;IGSN;EXPEDITION ID;REFERENCES;LATITUDE;LONGITUDE;LOC PREC;MIN ELEVATION;MAX ELEVATION;TECTONIC SETTING;MIN AGE;AGE;MAX AGE;METHOD;ANALYZED MATERIAL;ROCK TYPE;ROCK NAME;MINERAL;SIO2;SIO2 Units;SIO2 Method;TIO2;TIO2 Units;TIO2 Method;AL2O3;AL2O3 Units;AL2O3 Method;CR2O3;CR2O3 Units;CR2O3 Method;FE2O3;FE2O3 Units;FE2O3 Method;FE2O3T;FE2O3T Units;FE2O3T Method;FEO;FEO Units;FEO Method;FEOT;FEOT Units;FEOT Method;NIO;NIO Units;NIO Method;MNO;MNO Units;MNO Method;MGO;MGO Units;MGO Method;CAO;CAO Units;CAO Method;SRO;SRO Units;SRO Method;NA2O;NA2O Units;NA2O Method;K2O;K2O Units;K2O Method;P2O5;P2O5 Units;P2O5 Method;BAO;BAO Units;BAO Method;LOI;LOI Units;LOI Method;H2O;H2O Units;H2O Method;H2O_M;H2O_M Units;H2O_M Method;H2O_P;H2O_P Units;H2O_P Method;SO3;SO3 Units;SO3 Method;COO;COO Units;COO Method;MN;MN Units;MN Method;NI;NI Units;NI Method;CO;CO Units;CO Method;CU;CU Units;CU Method;CD;CD Units;CD Method;ZN;ZN Units;ZN Method;AS;AS Units;AS Method;AG;AG Units;AG Method;S;S Units;S Method;ZRO2;ZRO2 Units;ZRO2 Method;AL;AL Units;AL Method;CA;CA Units;CA Method;SR87_SR86;SR87_SR86 Units;SR87_SR86 Method;SR87_SR86_INI;SR87_SR86_INI Units;SR87_SR86_INI Method;RB87_SR86;RB87_SR86 Units;RB87_SR86 Method;ND143_ND144;ND143_ND144 Units;ND143_ND144 Method;ND143_ND144_INI;ND143_ND144_INI Units;ND143_ND144_INI Method;SM147_ND144;SM147_ND144 Units;SM147_ND144 Method;E_ND;E_ND Units;E_ND Method;E_ND_INI;E_ND_INI Units;E_ND_INI Method;PB204_PB206;PB204_PB206 Units;PB204_PB206 Method;PB206_PB204;PB206_PB204 Units;PB206_PB204 Method;PB206_PB204_INI;PB206_PB204_INI Units;PB206_PB204_INI Method;PB207_PB204;PB207_PB204 Units;PB207_PB204 Method;PB207_PB204_INI;PB207_PB204_INI Units;PB207_PB204_INI Method;PB207_PB206;PB207_PB206 Units;PB207_PB206 Method;PB208_PB204;PB208_PB204 Units;PB208_PB204 Method;PB208_PB204_INI;PB208_PB204_INI Units;PB208_PB204_INI Method;PB208_PB206;PB208_PB206 Units;PB208_PB206 Method;HF176_HF177;HF176_HF177 Units;HF176_HF177 Method;RE187_OS188;RE187_OS188 Units;RE187_OS188 Method;OS187_OS188;OS187_OS188 Units;OS187_OS188 Method;OS187_OS188_INI;OS187_OS188_INI Units;OS187_OS188_INI Method;G_OS;G_OS Units;G_OS Method;G_OS_INI;G_OS_INI Units;G_OS_INI Method;ND143_ND144_INI;ND143_ND144_INI Units;ND143_ND144_INI Method;PB206_PB204_INI;PB206_PB204_INI Units;PB206_PB204_INI Method;PB207_PB204_INI;PB207_PB204_INI Units;PB207_PB204_INI Method;PB208_PB204_INI;PB208_PB204_INI Units;PB208_PB204_INI Method;SR87_SR86_INI;SR87_SR86_INI Units;SR87_SR86_INI Method;HE;HE Units;HE Method;HE3;HE3 Units;HE3 Method;HE3_HE4_R_RA;HE3_HE4_R_RA Units;HE3_HE4_R_RA Method;AR36;AR36 Units;AR36 Method;AR40;AR40 Units;AR40 Method;AR40_AR36;AR40_AR36 Units;AR40_AR36 Method;NE20;NE20 Units;NE20 Method;NE20_NE22;NE20_NE22 Units;NE20_NE22 Method;NE21_NE22;NE21_NE22 Units;NE21_NE22 Method;LA;LA Units;LA Method;CE;CE Units;CE Method;PR;PR Units;PR Method;ND;ND Units;ND Method;SM;SM Units;SM Method;EU;EU Units;EU Method;GD;GD Units;GD Method;TB;TB Units;TB Method;DY;DY Units;DY Method;HO;HO Units;HO Method;ER;ER Units;ER Method;TM;TM Units;TM Method;YB;YB Units;YB Method;LU;LU Units;LU Method;CO2;CO2 Units;CO2 Method;F;F Units;F Method;CL;CL Units;CL Method;U238_PB204;U238_PB204 Units;U238_PB204 Method;TH230_TH232;TH230_TH232 Units;TH230_TH232 Method;RA226_ACTIVITY;RA226_ACTIVITY Units;RA226_ACTIVITY Method;PB210_RA226;PB210_RA226 Units;PB210_RA226 Method;PB210_ACTIVITY;PB210_ACTIVITY Units;PB210_ACTIVITY Method;AG;AG Units;AG Method;AL;AL Units;AL Method;AS;AS Units;AS Method;AU;AU Units;AU Method;B;B Units;B Method;BA;BA Units;BA Method;BE;BE Units;BE Method;BI;BI Units;BI Method;CA;CA Units;CA Method;CD;CD Units;CD Method;CO;CO Units;CO Method;CR;CR Units;CR Method;CS;CS Units;CS Method;CU;CU Units;CU Method;GA;GA Units;GA Method;GER;GER Units;GER Method;HF;HF Units;HF Method;INDIUM;INDIUM Units;INDIUM Method;IR;IR Units;IR Method;K;K Units;K Method;LI;LI Units;LI Method;MN;MN Units;MN Method;MO;MO Units;MO Method;NA;NA Units;NA Method;NB;NB Units;NB Method;NI;NI Units;NI Method;OS;OS Units;OS Method;P;P Units;P Method;PB;PB Units;PB Method;PD;PD Units;PD Method;PT;PT Units;PT Method;RB;RB Units;RB Method;RE;RE Units;RE Method;RH;RH Units;RH Method;RU;RU Units;RU Method;S;S Units;S Method;SB;SB Units;SB Method;SC;SC Units;SC Method;SN;SN Units;SN Method;SR;SR Units;SR Method;TA;TA Units;TA Method;TH;TH Units;TH Method;TI;TI Units;TI Method;TL;TL Units;TL Method;U;U Units;U Method;V;V Units;V Method;W;W Units;W Method;Y;Y Units;Y Method;ZN;ZN Units;ZN Method;ZR;ZR Units;ZR Method;DELTA_O18;DELTA_O18 Units;DELTA_O18 Method;DELTA_C13;DELTA_C13 Units;DELTA_C13 Method;DELTA_MO98;DELTA_MO98 Units;DELTA_MO98 Method;DELTA_ZN66;DELTA_ZN66 Units;DELTA_ZN66 Method;DELTA_ZN68;DELTA_ZN68 Units;DELTA_ZN68 Method;OS188;OS188 Units;OS188 Method;FE3P_FET;FE3P_FET Units;FE3P_FET Method;TI;TI Units;TI Method;AS;AS Units;AS Method;AS;AS Units;AS Method;GER;GER Units;GER Method;H2O_M;H2O_M Units;H2O_M Method;H2O_P;H2O_P Units;H2O_P Method;H2O_M;H2O_M Units;H2O_M Method;H2O_P;H2O_P Units;H2O_P Method;INDIUM;INDIUM Units;INDIUM Method
GROSCAMP-W-237189;;GROSSMAN-CAMP;GROSSMAN, 1991;39,859;-77,2705;0,001;;;CONTINENTAL_RIFT;;;;"AAS; ES; ICP; INAA; Unknown";WHOLE ROCK;IGNEOUS:VOLCANIC:MAFIC;DIABASE;;;;;;;;;;;;;;;;;19,73;wt%;Unknown;;;;;;;;;;;;;;;;;;;;;;2,71;wt%;Unknown;;;;;;;;;;;;;;;;;;;;;;;;;;;;;;;13;ppm;Unknown;57;ppm;Unknown;207;ppm;Unknown;;;;105;ppm;Unknown;;;;0,1;ppm;AAS;0,04;ppm;INAA;;;;;;;;;;;;;;;;;;;;;;;;;;;;;;;;;;;;;;;;;;;;;;;;;;;;;;;;;;;;;;;;;;;;;;;;;;;;;;;;;;;;;;;;;;;;;;;;;;;;;;;;;;;;;;;;;;;;;;;;;21,7;ppm;INAA;45;ppm;INAA;;;;24;ppm;INAA;6,4;ppm;INAA;1,8;ppm;INAA;;;;1,3;ppm;INAA;;;;;;;;;;;;;3,7;ppm;INAA;0,52;ppm;INAA;;;;0,06;ppm;INAA;0,36;ppm;INAA;;;;;;;;;;;;;;;;0,1;ppm;AAS;;;;;;;;;;25;ppm;ES;300;ppm;Unknown;;;;;;;;;;;;;57;ppm;Unknown;23;ppm;Unknown;2;ppm;INAA;207;ppm;Unknown;;;;;;;5;ppm;INAA;;;;;;;;;;;;;;;;;;;;;;19;ppm;ICP;13;ppm;Unknown;;;;;;;;;;75;ppm;Unknown;11;ppm;Unknown;50;ppm;Unknown;;;;;;;;;;0,04;ppm;INAA;0,55;ppm;INAA;41;ppm;INAA;;;;217;ppm;Unknown;1,2;ppm;INAA;4,6;ppm;INAA;;;;;;;0,98;ppm;INAA;;;;;;;38;ppm;Unknown;105;ppm;Unknown;175;ppm;Unknown;;;;;;;;;;;;;;;;;;;;;;;;;;;;;;;;;;;;;;;;;;;;;;;;
GROSCAMP-W-237190;;GROSSMAN-CAMP;GROSSMAN, 1991;39,859;-77,2705;0,001;;;CONTINENTAL_RIFT;;;;"AAS; ES; ICP; INAA; Unknown";WHOLE ROCK;IGNEOUS:VOLCANIC:MAFIC;DIABASE;;;;;;;;;;;;;;;;;16,3;wt%;Unknown;;;;;;;;;;;;;;;;;;;;;;2,82;wt%;Unknown;;;;;;;;;;;;;;;;;;;;;;;;;;;;;;;26;ppm;Unknown;44;ppm;Unknown;114;ppm;Unknown;;;;73;ppm;Unknown;;;;0,06;ppm;AAS;0,03;ppm;INAA;;;;;;;;;;;;;;;;;;;;;;;;;;;;;;;;;;;;;;;;;;;;;;;;;;;;;;;;;;;;;;;;;;;;;;;;;;;;;;;;;;;;;;;;;;;;;;;;;;;;;;;;;;;;;;;;;;;;;;;;;21,1;ppm;INAA;45;ppm;INAA;;;;;;;6,6;ppm;INAA;1,8;ppm;INAA;;;;1,2;ppm;INAA;;;;;;;;;;;;;3,8;ppm;INAA;0,58;ppm;INAA;;;;0,06;ppm;INAA;0,22;ppm;INAA;;;;;;;;;;;;;;;;0,06;ppm;AAS;;;;;;;;;;22;ppm;ES;360;ppm;Unknown;;;;;;;;;;;;;44;ppm;Unknown;6,9;ppm;Unknown;1,3;ppm;INAA;114;ppm;Unknown;;;;;;;5,4;ppm;INAA;;;;;;;;;;;;;;;;;;;;;;18;ppm;ICP;26;ppm;Unknown;;;;;;;;;;13;ppm;Unknown;7,9;ppm;Unknown;50;ppm;Unknown;;;;;;;;;;0,03;ppm;INAA;;;;33;ppm;INAA;;;;211;ppm;Unknown;1,2;ppm;INAA;4,7;ppm;INAA;;;;;;;0,83;ppm;INAA;;;;;;;40;ppm;Unknown;73;ppm;Unknown;185;ppm;Unknown;;;;;;;;;;;;;;;;;;;;;;;;;;;;;;;;;;;;;;;;;;;;;;;;
GROSCAMP-W-237191;;GROSSMAN-CAMP;GROSSMAN, 1991;39,859;-77,2705;0,001;;;CONTINENTAL_RIFT;;;;"AAS; ES; ICP; INAA; Unknown";WHOLE ROCK;IGNEOUS:VOLCANIC:MAFIC;DIABASE;;;;;;;;;;;;;;;;;19,59;wt%;Unknown;;;;;;;;;;;;;;;;;;;;;;2,63;wt%;Unknown;;;;;;;;;;;;;;;;;;;;;;;;;;;;;;;11;ppm;Unknown;55;ppm;Unknown;205;ppm;Unknown;;;;123;ppm;Unknown;;;;0,13;ppm;AAS;0,03;ppm;INAA;;;;;;;;;;;;;;;;;;;;;;;;;;;;;;;;;;;;;;;;;;;;;;;;;;;;;;;;;;;;;;;;;;;;;;;;;;;;;;;;;;;;;;;;;;;;;;;;;;;;;;;;;;;;;;;;;;;;;;;;;23,5;ppm;INAA;48;ppm;INAA;;;;;;;6,9;ppm;INAA;1,9;ppm;INAA;;;;1,4;ppm;INAA;;;;;;;;;;;;;4,1;ppm;INAA;0,6;ppm;INAA;;;;0,06;ppm;INAA;0,44;ppm;INAA;;;;;;;;;;;;;;;;0,13;ppm;AAS;;;;;;;;;;31;ppm;ES;330;ppm;Unknown;;;;;;;;;;;;;55;ppm;Unknown;;;;2,4;ppm;INAA;205;ppm;Unknown;;;;;;;5,9;ppm;INAA;;;;;;;;;;;;;;;;;;;;;;19;ppm;ICP;11;ppm;Unknown;;;;;;;;;;89;ppm;Unknown;11;ppm;Unknown;56;ppm;Unknown;;;;;;;;;;0,03;ppm;INAA;;;;41;ppm;INAA;;;;218;ppm;Unknown;1,3;ppm;INAA;5,3;ppm;INAA;;;;;;;0,89;ppm;INAA;;;;;;;47;ppm;Unknown;123;ppm;Unknown;195;ppm;Unknown;;;;;;;;;;;;;;;;;;;;;;;;;;;;;;;;;;;;;;;;;;;;;;;;
GROSCAMP-W-237192;;GROSSMAN-CAMP;GROSSMAN, 1991;39,859;-77,2705;0,001;;;CONTINENTAL_RIFT;;;;"AAS; ES; ICP; INAA; Unknown";WHOLE ROCK;IGNEOUS:VOLCANIC:MAFIC;DIABASE;;;;;;;;;;;;;;;;;19,31;wt%;Unknown;;;;;;;;;;;;;;;;;;;;;;2,72;wt%;Unknown;;;;;;;;;;;;;;;;;;;;;;;;;;;;;;;15;ppm;Unknown;56;ppm;Unknown;196;ppm;Unknown;;;;101;ppm;Unknown;;;;0,15;ppm;AAS;0,03;ppm;INAA;;;;;;;;;;;;;;;;;;;;;;;;;;;;;;;;;;;;;;;;;;;;;;;;;;;;;;;;;;;;;;;;;;;;;;;;;;;;;;;;;;;;;;;;;;;;;;;;;;;;;;;;;;;;;;;;;;;;;;;;;23,3;ppm;INAA;49;ppm;INAA;;;;;;;6,6;ppm;INAA;1,9;ppm;INAA;;;;1,2;ppm;INAA;;;;;;;;;;;;;3,8;ppm;INAA;0,56;ppm;INAA;;;;0,06;ppm;INAA;0,23;ppm;INAA;;;;;;;;;;;;;;;;0,15;ppm;AAS;;;;;;;;;;30;ppm;ES;330;ppm;Unknown;;;;;;;;;;;;;56;ppm;Unknown;;;;1,7;ppm;INAA;196;ppm;Unknown;;;;;;;5,8;ppm;INAA;;;;;;;;;;;;;;;;;;;;;;18;ppm;ICP;15;ppm;Unknown;;;;;;;;;;61;ppm;Unknown;16;ppm;Unknown;54;ppm;Unknown;;;;;;;;;;0,03;ppm;INAA;;;;39;ppm;INAA;;;;217;ppm;Unknown;1,3;ppm;INAA;5,4;ppm;INAA;;;;;;;1;ppm;INAA;;;;;;;38;ppm;Unknown;101;ppm;Unknown;193;ppm;Unknown;;;;;;;;;;;;;;;;;;;;;;;;;;;;;;;;;;;;;;;;;;;;;;;;
GROSCAMP-W-237193;;GROSSMAN-CAMP;GROSSMAN, 1991;39,859;-77,2705;0,001;;;CONTINENTAL_RIFT;;;;"AAS; ES; ICP; INAA; Unknown";WHOLE ROCK;IGNEOUS:VOLCANIC:MAFIC;DIABASE;;;;;;;;;;;;;;;;;19,02;wt%;Unknown;;;;;;;;;;;;;;;;;;;;;;2,74;wt%;Unknown;;;;;;;;;;;;;;;;;;;;;;;;;;;;;;;11;ppm;Unknown;50;ppm;Unknown;320;ppm;Unknown;;;;108;ppm;Unknown;;;;0,093;ppm;AAS;0,04;ppm;INAA;;;;;;;;;;;;;;;;;;;;;;;;;;;;;;;;;;;;;;;;;;;;;;;;;;;;;;;;;;;;;;;;;;;;;;;;;;;;;;;;;;;;;;;;;;;;;;;;;;;;;;;;;;;;;;;;;;;;;;;;;26,9;ppm;INAA;54;ppm;INAA;;;;;;;7,9;ppm;INAA;2,3;ppm;INAA;;;;1,4;ppm;INAA;;;;;;;;;;;;;4,8;ppm;INAA;0,65;ppm;INAA;;;;0,07;ppm;INAA;0,25;ppm;INAA;;;;;;;;;;;;;;;;0,093;ppm;AAS;;;;;;;;;;28;ppm;ES;400;ppm;Unknown;;;;;;;;;;;;;50;ppm;Unknown;20;ppm;Unknown;2,1;ppm;INAA;320;ppm;Unknown;;;;;;;6,3;ppm;INAA;;;;;;;;;;;;;;;;;;;;;;20;ppm;ICP;11;ppm;Unknown;;;;;;;;;;34;ppm;Unknown;6,8;ppm;Unknown;57;ppm;Unknown;;;;;;;;;;0,04;ppm;INAA;0,45;ppm;INAA;39;ppm;INAA;;;;209;ppm;Unknown;1,4;ppm;INAA;5,8;ppm;INAA;;;;;;;1,3;ppm;INAA;;;;;;;46;ppm;Unknown;108;ppm;Unknown;217;ppm;Unknown;;;;;;;;;;;;;;;;;;;;;;;;;;;;;;;;;;;;;;;;;;;;;;;;
GROSCAMP-W-237194;;GROSSMAN-CAMP;GROSSMAN, 1991;39,859;-77,2705;0,001;;;CONTINENTAL_RIFT;;;;"AAS; ES; ICP; INAA; Unknown";WHOLE ROCK;IGNEOUS:VOLCANIC:MAFIC;DIABASE;;;;;;;;;;;;;;;;;15,44;wt%;Unknown;;;;;;;;;;;;;;;;;;;;;;2,8;wt%;Unknown;;;;;;;;;;;;;;;;;;;;;;;;;;;;;;;25;ppm;Unknown;46;ppm;Unknown;173;ppm;Unknown;;;;94;ppm;Unknown;;;;0,19;ppm;AAS;0,01;ppm;INAA;;;;;;;;;;;;;;;;;;;;;;;;;;;;;;;;;;;;;;;;;;;;;;;;;;;;;;;;;;;;;;;;;;;;;;;;;;;;;;;;;;;;;;;;;;;;;;;;;;;;;;;;;;;;;;;;;;;;;;;;;21,5;ppm;INAA;44;ppm;INAA;;;;24;ppm;INAA;6,2;ppm;INAA;1,8;ppm;INAA;;;;1,1;ppm;INAA;;;;;;;;;;;;;3,6;ppm;INAA;0,5;ppm;INAA;;;;0,06;ppm;INAA;0,25;ppm;INAA;;;;;;;;;;;;;;;;0,19;ppm;AAS;;;;;;;;;;18;ppm;ES;330;ppm;Unknown;;;;;;;;;;;;;46;ppm;Unknown;7,8;ppm;Unknown;1,8;ppm;INAA;173;ppm;Unknown;;;;;;;5,4;ppm;INAA;;;;;;;;;;;;;;;;;;;;;;15;ppm;ICP;25;ppm;Unknown;;;;;;;;;;17;ppm;Unknown;6,4;ppm;Unknown;47;ppm;Unknown;;;;;;;;;;0,01;ppm;INAA;0,38;ppm;INAA;34;ppm;INAA;;;;240;ppm;Unknown;0,98;ppm;INAA;4,9;ppm;INAA;;;;;;;1,2;ppm;INAA;;;;;;;40;ppm;Unknown;94;ppm;Unknown;187;ppm;Unknown;;;;;;;;;;;;;;;;;;;;;;;;;;;;;;;;;;;;;;;;;;;;;;;;
GROSCAMP-W-238427;;GROSSMAN-CAMP;GROSSMAN, 1991;40,0972;-78,9714;0,001;;;CONTINENTAL_RIFT;;;;"AAS; COL; ICP; ICPMS; INAA; TITR; Unknown";WHOLE ROCK;IGNEOUS:VOLCANIC:MAFIC;DIABASE;;62;wt%;COL;1,46;wt%;COL;11,9;wt%;COL;;;;6,08;wt%;Unknown;;;;6,2;wt%;TITR;;;;;;;0,1;wt%;AAS;0,73;wt%;AAS;3,59;wt%;Unknown;;;;3,54;wt%;Unknown;2,59;wt%;AAS;0,45;wt%;COL;;;;;;;;;;0,44;wt%;TITR;1,1;wt%;TITR;;;;;;;;;;;;;15,5;ppm;Unknown;32;ppm;Unknown;;;;33;ppm;Unknown;2,1;ppm;INAA;;;;;;;;;;;;;;;;;;;;;;;;;;;;;;;;;;;;;;;;;;;;;;;;;;;;;;;;;;;;;;;;;;;;;;;;;;;;;;;;;;;;;;;;;;;;;;;;;;;;;;;;;;;;;;;;;;;;;;;;;;;;;;;87;ppm;INAA;96;ppm;INAA;;;;100;ppm;INAA;25,8;ppm;INAA;5,7;ppm;INAA;;;;3,6;ppm;INAA;;;;;;;;;;;;;9,7;ppm;INAA;1,27;ppm;INAA;;;;0,08;ppm;INAA;0,25;ppm;INAA;;;;;;;;;;;;;;;;;;;;;;2,1;ppm;INAA;;;;;;;620;ppm;Unknown;;;;;;;;;;;;;15,5;ppm;Unknown;;;;0,39;ppm;INAA;32;ppm;Unknown;;;;;;;10;ppm;INAA;;;;;;;;;;;;;;;;;;;;;;26;ppm;ICP;;;;;;;;;;;;;9,9;ppm;Unknown;3;ppm;Unknown;76;ppm;Unknown;;;;;;;0,6;ppm;ICPMS;;;;0,27;ppm;INAA;21,8;ppm;INAA;;;;190;ppm;Unknown;2,12;ppm;INAA;9,9;ppm;INAA;;;;;;;1,8;ppm;INAA;;;;;;;110;ppm;Unknown;33;ppm;Unknown;400;ppm;Unknown;;;;;;;;;;;;;;;;;;;;;;;;;2,1;ppm;INAA;2,1;ppm;INAA;;;;0,44;wt%;TITR;1,1;wt%;TITR;0,44;wt%;TITR;1,1;wt%;TITR;;;
GROSCAMP-W-241503;;GROSSMAN-CAMP;GROSSMAN, 1991;40,1167;-76,7;0,001;;;CONTINENTAL_RIFT;;;;"AAS; COL; INAA; TITR; Unknown";WHOLE ROCK;IGNEOUS:VOLCANIC:MAFIC;DIABASE;;52;wt%;COL;0,83;wt%;COL;12,3;wt%;COL;;;;1,09;wt%;Unknown;;;;8,91;wt%;TITR;;;;;;;0,18;wt%;AAS;11,45;wt%;AAS;10,9;wt%;Unknown;;;;1,67;wt%;Unknown;0,41;wt%;AAS;0,12;wt%;COL;;;;;;;;;;;;;;;;;;;;;;;;;;;;;;;;;;;;;;;;;;;;;;0,01;ppm;INAA;;;;;;;;;;;;;;;;;;;;;;;;;;;;;;;;;;;;;;;;;;;;;;;;;;;;;;;;;;;;;;;;;;;;;;;;;;;;;;;;;;;;;;;;;;;;;;;;;;;;;;;;;;;;;;;;;;;;;;;;;;;;;;;;;;;;;;;;;;;;;;;;;;;;;;;;;;;;;;;;;;;;;;;;;0,03;ppm;INAA;;;;;;;;;;;;;;;;;;;;;;;;;;;;;;;;;;;;;;;;;;;;;;;;;;;;;;;;;;;;;;;;;;;;;;;;;;;;;;;;;;;;;;;;;;;;;;;;;;;;;;;7,2;ppm;Unknown;11;ppm;Unknown;;;;;;;;;;;;;0,01;ppm;INAA;;;;;;;;;;;;;;;;;;;;;;;;;;;;;;;;;;;;;;;;;;;;;;;;;;;;;;;;;;;;;;;;;;;;;;;;;;;;;;;;;;;;;;;;;;
GROSCAMP-W-238428;;GROSSMAN-CAMP;GROSSMAN, 1991;40,0947;-77,9731;0,001;;;CONTINENTAL_RIFT;;;;"AAS; COL; ICP; ICPMS; INAA; TITR; Unknown";WHOLE ROCK;IGNEOUS:VOLCANIC:MAFIC;DIABASE;;63,3;wt%;COL;1,24;wt%;COL;11,9;wt%;COL;;;;6,29;wt%;Unknown;;;;5,6;wt%;TITR;;;;;;;0,13;wt%;AAS;0,55;wt%;AAS;2,56;wt%;Unknown;;;;3,8;wt%;Unknown;2,97;wt%;AAS;0,37;wt%;COL;;;;;;;;;;0,3;wt%;TITR;1;wt%;TITR;;;;;;;;;;;;;14,6;ppm;Unknown;177;ppm;Unknown;;;;106;ppm;Unknown;1,4;ppm;INAA;;;;;;;;;;;;;;;;;;;;;;;;;;;;;;;;;;;;;;;;;;;;;;;;;;;;;;;;;;;;;;;;;;;;;;;;;;;;;;;;;;;;;;;;;;;;;;;;;;;;;;;;;;;;;;;;;;;;;;;;;;;;;;;62;ppm;INAA;100;ppm;INAA;;;;72;ppm;INAA;18,3;ppm;INAA;4,1;ppm;INAA;;;;3,1;ppm;INAA;;;;;;;;;;;;;9,4;ppm;INAA;1,25;ppm;INAA;;;;0,09;ppm;INAA;0,12;ppm;INAA;;;;;;;;;;;;;;;;;;;;;;1,4;ppm;INAA;;;;;;;800;ppm;Unknown;;;;;;;;;;;;;14,6;ppm;Unknown;2,2;ppm;Unknown;0,5;ppm;INAA;177;ppm;Unknown;;;;;;;11,3;ppm;INAA;;;;;;;;;;;;;;;;;;;;;;25;ppm;ICP;;;;;;;;;;;;;;;;;;;86;ppm;Unknown;;;;;;;0,5;ppm;ICPMS;;;;0,33;ppm;INAA;18,2;ppm;INAA;;;;185;ppm;Unknown;2,3;ppm;INAA;11,4;ppm;INAA;;;;;;;2,3;ppm;INAA;;;;;;;98;ppm;Unknown;106;ppm;Unknown;430;ppm;Unknown;;;;;;;;;;;;;;;;;;;;;;;;;1,4;ppm;INAA;1,4;ppm;INAA;;;;0,3;wt%;TITR;1;wt%;TITR;0,3;wt%;TITR;1;wt%;TITR;;;
GROSCAMP-W-238429;;GROSSMAN-CAMP;GROSSMAN, 1991;39,7333;-77,3653;0,001;;;CONTINENTAL_RIFT;;;;"AAS; COL; ICP; INAA; TITR; Unknown";WHOLE ROCK;IGNEOUS:VOLCANIC:MAFIC;DIABASE;;62,5;wt%;COL;1,3;wt%;COL;12;wt%;COL;;;;8,21;wt%;Unknown;;;;3,9;wt%;TITR;;;;;;;0,13;wt%;AAS;0,72;wt%;AAS;2,68;wt%;Unknown;;;;4,89;wt%;Unknown;1,8;wt%;AAS;0,42;wt%;COL;;;;;;;;;;0,3;wt%;TITR;0,71;wt%;TITR;;;;;;;;;;;;;12,8;ppm;Unknown;177;ppm;Unknown;;;;132;ppm;Unknown;4,9;ppm;INAA;;;;0,04;ppm;INAA;;;;;;;;;;;;;;;;;;;;;;;;;;;;;;;;;;;;;;;;;;;;;;;;;;;;;;;;;;;;;;;;;;;;;;;;;;;;;;;;;;;;;;;;;;;;;;;;;;;;;;;;;;;;;;;;;;;;;;;;;56;ppm;INAA;86;ppm;INAA;;;;53;ppm;INAA;15,1;ppm;INAA;3,3;ppm;INAA;;;;2,4;ppm;INAA;;;;;;;;;;;;;7,4;ppm;INAA;1,05;ppm;INAA;;;;0,05;ppm;INAA;0,01;ppm;INAA;;;;;;;;;;;;;;;;;;;;;;4,9;ppm;INAA;;;;;;;1270;ppm;Unknown;;;;;;;;;;;;;12,8;ppm;Unknown;;;;0,91;ppm;INAA;177;ppm;Unknown;;;;;;;9,9;ppm;INAA;;;;;;;;;;;;;;;;;;;;;;23;ppm;ICP;;;;;;;;;;;;;;;;2;ppm;Unknown;51;ppm;Unknown;;;;;;;;;;0,04;ppm;INAA;0,49;ppm;INAA;19;ppm;INAA;;;;171;ppm;Unknown;2,1;ppm;INAA;9,9;ppm;INAA;;;;;;;1,7;ppm;INAA;;;;;;;84;ppm;Unknown;132;ppm;Unknown;390;ppm;Unknown;;;;;;;;;;;;;;;;;;;;;;;;;4,9;ppm;INAA;4,9;ppm;INAA;;;;0,3;wt%;TITR;0,71;wt%;TITR;0,3;wt%;TITR;0,71;wt%;TITR;;;
GROSCAMP-W-238430;;GROSSMAN-CAMP;GROSSMAN, 1991;39,7236;-77,3653;0,001;;;CONTINENTAL_RIFT;;;;"AAS; COL; ICP; INAA; TITR; Unknown";WHOLE ROCK;IGNEOUS:VOLCANIC:MAFIC;DIABASE;;52,2;wt%;COL;2,08;wt%;COL;14;wt%;COL;;;;3,98;wt%;Unknown;;;;9,8;wt%;TITR;;;;;;;0,19;wt%;AAS;3,47;wt%;AAS;7,98;wt%;Unknown;;;;3,42;wt%;Unknown;1,22;wt%;AAS;0,24;wt%;COL;;;;;;;;;;0,21;wt%;TITR;1,4;wt%;TITR;;;;;;;;;;25;ppm;Unknown;45;ppm;Unknown;133;ppm;Unknown;;;;108;ppm;Unknown;;;;;;;0,04;ppm;INAA;;;;;;;;;;;;;;;;;;;;;;;;;;;;;;;;;;;;;;;;;;;;;;;;;;;;;;;;;;;;;;;;;;;;;;;;;;;;;;;;;;;;;;;;;;;;;;;;;;;;;;;;;;;;;;;;;;;;;;;;;18,8;ppm;INAA;38;ppm;INAA;;;;22;ppm;INAA;5,7;ppm;INAA;1,5;ppm;INAA;;;;0,91;ppm;INAA;;;;;;;;;;;;;3,3;ppm;INAA;0,48;ppm;INAA;0,02;ppm;TITR;0,04;ppm;INAA;0,09;ppm;INAA;;;;;;;;;;;;;;;;;;;;;;;;;;;;;;;261;ppm;Unknown;;;;;;;;;;;;;45;ppm;Unknown;7,4;ppm;Unknown;0,92;ppm;INAA;133;ppm;Unknown;;;;;;;4;ppm;INAA;;;;;;;;;;;;;;;;;;;;;;12;ppm;ICP;25;ppm;Unknown;;;;;;;;;;;;;;;;47;ppm;Unknown;;;;;;;;;;0,04;ppm;INAA;0,29;ppm;INAA;35;ppm;INAA;;;;219;ppm;Unknown;0,91;ppm;INAA;3,8;ppm;INAA;;;;;;;0,79;ppm;INAA;;;;;;;34;ppm;Unknown;108;ppm;Unknown;162;ppm;Unknown;;;;;;;;;;;;;;;;;;;;;;;;;;;;;;;;;;0,21;wt%;TITR;1,4;wt%;TITR;0,21;wt%;TITR;1,4;wt%;TITR;;;
GROSCAMP-W-238431;;GROSSMAN-CAMP;GROSSMAN, 1991;40,0972;-78,9708;0,001;;;CONTINENTAL_RIFT;;;;"AAS; COL; ICP; INAA; TITR; Unknown";WHOLE ROCK;IGNEOUS:VOLCANIC:MAFIC;DIABASE;;51,6;wt%;COL;3,54;wt%;COL;12,1;wt%;COL;;;;5,89;wt%;Unknown;;;;11,3;wt%;TITR;;;;;;;0,21;wt%;AAS;2,84;wt%;AAS;7,83;wt%;Unknown;;;;2,95;wt%;Unknown;1,11;wt%;AAS;0,24;wt%;COL;;;;;;;;;;0,4;wt%;TITR;0,91;wt%;TITR;;;;;;;;;;5,1;ppm;Unknown;50;ppm;Unknown;760;ppm;Unknown;;;;102;ppm;Unknown;;;;;;;0,03;ppm;INAA;;;;;;;;;;;;;;;;;;;;;;;;;;;;;;;;;;;;;;;;;;;;;;;;;;;;;;;;;;;;;;;;;;;;;;;;;;;;;;;;;;;;;;;;;;;;;;;;;;;;;;;;;;;;;;;;;;;;;;;;;21,2;ppm;INAA;41;ppm;INAA;;;;27;ppm;INAA;6,6;ppm;INAA;1,98;ppm;INAA;;;;1,1;ppm;INAA;;;;;;;;;;;;;3,7;ppm;INAA;0,58;ppm;INAA;;;;0,04;ppm;INAA;0,11;ppm;INAA;;;;;;;;;;;;;;;;;;;;;;;;;12;ppm;INAA;;;;262;ppm;Unknown;;;;;;;;;;;;;50;ppm;Unknown;;;;1,5;ppm;INAA;760;ppm;Unknown;;;;;;;4,5;ppm;INAA;;;;;;;;;;;;;;;;;;;;;;15;ppm;ICP;5,1;ppm;Unknown;;;;;;;;;;9,8;ppm;Unknown;3,1;ppm;Unknown;41;ppm;Unknown;;;;;;;;;;0,03;ppm;INAA;;;;44;ppm;INAA;;;;207;ppm;Unknown;1,2;ppm;INAA;4,1;ppm;INAA;;;;;;;0,94;ppm;INAA;;;;;;;41;ppm;Unknown;102;ppm;Unknown;170;ppm;Unknown;;;;;;;;;;;;;;;;;;;;;;;;;;;;;;;;;;0,4;wt%;TITR;0,91;wt%;TITR;0,4;wt%;TITR;0,91;wt%;TITR;;;
GROSCAMP-W-238432;;GROSSMAN-CAMP;GROSSMAN, 1991;38,5153;-77,5375;0,001;;;CONTINENTAL_RIFT;;;;"AAS; COL; ICP; INAA; TITR; Unknown";WHOLE ROCK;IGNEOUS:VOLCANIC:MAFIC;DIABASE;;51,4;wt%;COL;2,21;wt%;COL;13,6;wt%;COL;;;;3,73;wt%;Unknown;;;;10,8;wt%;TITR;;;;;;;0,24;wt%;AAS;4,05;wt%;AAS;9,82;wt%;Unknown;;;;2,49;wt%;Unknown;0,89;wt%;AAS;0,2;wt%;COL;;;;;;;;;;0,26;wt%;TITR;0,85;wt%;TITR;;;;;;;;;;29;ppm;Unknown;52;ppm;Unknown;115;ppm;Unknown;;;;80;ppm;Unknown;;;;;;;;;;;;;;;;;;;;;;;;;;;;;;;;;;;;;;;;;;;;;;;;;;;;;;;;;;;;;;;;;;;;;;;;;;;;;;;;;;;;;;;;;;;;;;;;;;;;;;;;;;;;;;;;;;;;;;;;;;;;;;;;;;16;ppm;INAA;30;ppm;INAA;;;;17;ppm;INAA;4,9;ppm;INAA;1,42;ppm;INAA;;;;0,84;ppm;INAA;;;;;;;;;;;;;3;ppm;INAA;0,45;ppm;INAA;0,01;ppm;TITR;0,03;ppm;INAA;0,16;ppm;INAA;;;;;;;;;;;;;;;;;;;;;;;;;;;;;;;244;ppm;Unknown;;;;;;;;;;;;;52;ppm;Unknown;8,3;ppm;Unknown;1,4;ppm;INAA;115;ppm;Unknown;;;;;;;3,3;ppm;INAA;;;;;;;;;;;;;;;;;;;;;;11;ppm;ICP;29;ppm;Unknown;;;;;;;;;;17;ppm;Unknown;6,1;ppm;Unknown;21;ppm;Unknown;;;;;;;;;;;;;;;;41;ppm;INAA;;;;224;ppm;Unknown;0,8;ppm;INAA;3,1;ppm;INAA;;;;;;;0,76;ppm;INAA;;;;;;;28;ppm;Unknown;80;ppm;Unknown;137;ppm;Unknown;;;;;;;;;;;;;;;;;;;;;;;;;;;;;;;;;;0,26;wt%;TITR;0,85;wt%;TITR;0,26;wt%;TITR;0,85;wt%;TITR;;;