SAMPLE ID;IGSN;EXPEDITION ID;REFERENCES;LATITUDE;LONGITUDE;LOC PREC;MIN ELEVATION;MAX ELEVATION;TECTONIC SETTING;MIN AGE;AGE;MAX AGE;METHOD;ANALYZED MATERIAL;ROCK TYPE;ROCK NAME;MINERAL;SIO2;SIO2 Units;SIO2 Method;TIO2;TIO2 Units;TIO2 Method;AL2O3;AL2O3 Units;AL2O3 Method;CR2O3;CR2O3 Units;CR2O3 Method;FE2O3;FE2O3 Units;FE2O3 Method;FE2O3T;FE2O3T Units;FE2O3T Method;FEO;FEO Units;FEO Method;FEOT;FEOT Units;FEOT Method;NIO;NIO Units;NIO Method;MNO;MNO Units;MNO Method;MGO;MGO Units;MGO Method;CAO;CAO Units;CAO Method;SRO;SRO Units;SRO Method;NA2O;NA2O Units;NA2O Method;K2O;K2O Units;K2O Method;P2O5;P2O5 Units;P2O5 Method;BAO;BAO Units;BAO Method;LOI;LOI Units;LOI Method;H2O;H2O Units;H2O Method;H2O_M;H2O_M Units;H2O_M Method;H2O_P;H2O_P Units;H2O_P Method;SO3;SO3 Units;SO3 Method;COO;COO Units;COO Method;MN;MN Units;MN Method;NI;NI Units;NI Method;CO;CO Units;CO Method;CU;CU Units;CU Method;CD;CD Units;CD Method;ZN;ZN Units;ZN Method;AS;AS Units;AS Method;AG;AG Units;AG Method;S;S Units;S Method;ZRO2;ZRO2 Units;ZRO2 Method;AL;AL Units;AL Method;CA;CA Units;CA Method;SR87_SR86;SR87_SR86 Units;SR87_SR86 Method;SR87_SR86_INI;SR87_SR86_INI Units;SR87_SR86_INI Method;RB87_SR86;RB87_SR86 Units;RB87_SR86 Method;ND143_ND144;ND143_ND144 Units;ND143_ND144 Method;ND143_ND144_INI;ND143_ND144_INI Units;ND143_ND144_INI Method;SM147_ND144;SM147_ND144 Units;SM147_ND144 Method;E_ND;E_ND Units;E_ND Method;E_ND_INI;E_ND_INI Units;E_ND_INI Method;PB204_PB206;PB204_PB206 Units;PB204_PB206 Method;PB206_PB204;PB206_PB204 Units;PB206_PB204 Method;PB206_PB204_INI;PB206_PB204_INI Units;PB206_PB204_INI Method;PB207_PB204;PB207_PB204 Units;PB207_PB204 Method;PB207_PB204_INI;PB207_PB204_INI Units;PB207_PB204_INI Method;PB207_PB206;PB207_PB206 Units;PB207_PB206 Method;PB208_PB204;PB208_PB204 Units;PB208_PB204 Method;PB208_PB204_INI;PB208_PB204_INI Units;PB208_PB204_INI Method;PB208_PB206;PB208_PB206 Units;PB208_PB206 Method;HF176_HF177;HF176_HF177 Units;HF176_HF177 Method;RE187_OS188;RE187_OS188 Units;RE187_OS188 Method;OS187_OS188;OS187_OS188 Units;OS187_OS188 Method;OS187_OS188_INI;OS187_OS188_INI Units;OS187_OS188_INI Method;G_OS;G_OS Units;G_OS Method;G_OS_INI;G_OS_INI Units;G_OS_INI Method;ND143_ND144_INI;ND143_ND144_INI Units;ND143_ND144_INI Method;PB206_PB204_INI;PB206_PB204_INI Units;PB206_PB204_INI Method;PB207_PB204_INI;PB207_PB204_INI Units;PB207_PB204_INI Method;PB208_PB204_INI;PB208_PB204_INI Units;PB208_PB204_INI Method;SR87_SR86_INI;SR87_SR86_INI Units;SR87_SR86_INI Method;HE;HE Units;HE Method;HE3;HE3 Units;HE3 Method;HE3_HE4_R_RA;HE3_HE4_R_RA Units;HE3_HE4_R_RA Method;AR36;AR36 Units;AR36 Method;AR40;AR40 Units;AR40 Method;AR40_AR36;AR40_AR36 Units;AR40_AR36 Method;NE20;NE20 Units;NE20 Method;NE20_NE22;NE20_NE22 Units;NE20_NE22 Method;NE21_NE22;NE21_NE22 Units;NE21_NE22 Method;LA;LA Units;LA Method;CE;CE Units;CE Method;PR;PR Units;PR Method;ND;ND Units;ND Method;SM;SM Units;SM Method;EU;EU Units;EU Method;GD;GD Units;GD Method;TB;TB Units;TB Method;DY;DY Units;DY Method;HO;HO Units;HO Method;ER;ER Units;ER Method;TM;TM Units;TM Method;YB;YB Units;YB Method;LU;LU Units;LU Method;CO2;CO2 Units;CO2 Method;F;F Units;F Method;CL;CL Units;CL Method;U238_PB204;U238_PB204 Units;U238_PB204 Method;TH230_TH232;TH230_TH232 Units;TH230_TH232 Method;RA226_ACTIVITY;RA226_ACTIVITY Units;RA226_ACTIVITY Method;PB210_RA226;PB210_RA226 Units;PB210_RA226 Method;PB210_ACTIVITY;PB210_ACTIVITY Units;PB210_ACTIVITY Method;AG;AG Units;AG Method;AL;AL Units;AL Method;AS;AS Units;AS Method;AU;AU Units;AU Method;B;B Units;B Method;BA;BA Units;BA Method;BE;BE Units;BE Method;BI;BI Units;BI Method;CA;CA Units;CA Method;CD;CD Units;CD Method;CO;CO Units;CO Method;CR;CR Units;CR Method;CS;CS Units;CS Method;CU;CU Units;CU Method;GA;GA Units;GA Method;GER;GER Units;GER Method;HF;HF Units;HF Method;INDIUM;INDIUM Units;INDIUM Method;IR;IR Units;IR Method;K;K Units;K Method;LI;LI Units;LI Method;MN;MN Units;MN Method;MO;MO Units;MO Method;NA;NA Units;NA Method;NB;NB Units;NB Method;NI;NI Units;NI Method;OS;OS Units;OS Method;P;P Units;P Method;PB;PB Units;PB Method;PD;PD Units;PD Method;PT;PT Units;PT Method;RB;RB Units;RB Method;RE;RE Units;RE Method;RH;RH Units;RH Method;RU;RU Units;RU Method;S;S Units;S Method;SB;SB Units;SB Method;SC;SC Units;SC Method;SN;SN Units;SN Method;SR;SR Units;SR Method;TA;TA Units;TA Method;TH;TH Units;TH Method;TI;TI Units;TI Method;TL;TL Units;TL Method;U;U Units;U Method;V;V Units;V Method;W;W Units;W Method;Y;Y Units;Y Method;ZN;ZN Units;ZN Method;ZR;ZR Units;ZR Method;DELTA_O18;DELTA_O18 Units;DELTA_O18 Method;DELTA_C13;DELTA_C13 Units;DELTA_C13 Method;DELTA_MO98;DELTA_MO98 Units;DELTA_MO98 Method;DELTA_ZN66;DELTA_ZN66 Units;DELTA_ZN66 Method;DELTA_ZN68;DELTA_ZN68 Units;DELTA_ZN68 Method;OS188;OS188 Units;OS188 Method;FE3P_FET;FE3P_FET Units;FE3P_FET Method;TI;TI Units;TI Method;AS;AS Units;AS Method;AS;AS Units;AS Method;GER;GER Units;GER Method;H2O_M;H2O_M Units;H2O_M Method;H2O_P;H2O_P Units;H2O_P Method;H2O_M;H2O_M Units;H2O_M Method;H2O_P;H2O_P Units;H2O_P Method;INDIUM;INDIUM Units;INDIUM Method
GROSCAMP-W-244941;;GROSSMAN-CAMP;GROSSMAN, 1991;41,4167;-72,95;0,001;;;CONTINENTAL_RIFT;;;;"AAS; COL; ICP; INAA; TITR; Unknown";WHOLE ROCK;IGNEOUS:VOLCANIC:MAFIC;DIABASE;;51,9;wt%;COL;1,25;wt%;COL;14,8;wt%;COL;;;;3,17;wt%;Unknown;;;;7,8;wt%;TITR;;;;;;;0,17;wt%;AAS;6,59;wt%;AAS;11;wt%;Unknown;;;;2,3;wt%;Unknown;0,66;wt%;AAS;0,15;wt%;COL;;;;;;;;;;0,22;wt%;TITR;0,98;wt%;TITR;;;;;;;;;;79;ppm;Unknown;45;ppm;Unknown;;;;;;;71;ppm;Unknown;;;;;;;0,06;ppm;INAA;;;;;;;;;;;;;;;;;;;;;;;;;;;;;;;;;;;;;;;;;;;;;;;;;;;;;;;;;;;;;;;;;;;;;;;;;;;;;;;;;;;;;;;;;;;;;;;;;;;;;;;;;;;;;;;;;;;;;;;;;11,9;ppm;INAA;25;ppm;INAA;;;;14;ppm;INAA;3,7;ppm;INAA;1,16;ppm;INAA;;;;0,66;ppm;INAA;;;;;;;;;;;;;2,2;ppm;INAA;0,34;ppm;INAA;;;;0,02;ppm;INAA;0,01;ppm;INAA;;;;;;;;;;;;;;;;;;;;;;;;;;;;;;;160;ppm;Unknown;;;;;;;;;;;;;45;ppm;Unknown;250;ppm;Unknown;0,89;ppm;INAA;;;;19;ppm;ICP;;;;2,7;ppm;INAA;;;;;;;;;;;;;;;;;;;;;;7,3;ppm;ICP;79;ppm;Unknown;;;;;;;;;;;;;;;;31;ppm;Unknown;;;;;;;;;;0,06;ppm;INAA;;;;36;ppm;INAA;;;;200;ppm;Unknown;0,6;ppm;INAA;2,3;ppm;INAA;;;;;;;;;;;;;;;;21;ppm;Unknown;71;ppm;Unknown;;;;;;;;;;;;;;;;;;;;;;;;;;;;;;;;;;;;;0,22;wt%;TITR;0,98;wt%;TITR;0,22;wt%;TITR;0,98;wt%;TITR;;;
GROSCAMP-W-244942;;GROSSMAN-CAMP;GROSSMAN, 1991;41,4167;-72,95;0,001;;;CONTINENTAL_RIFT;;;;"AAS; COL; ICP; INAA; TITR; Unknown";WHOLE ROCK;IGNEOUS:VOLCANIC:MAFIC;DIABASE;;52;wt%;COL;1,11;wt%;COL;13,9;wt%;COL;;;;2,93;wt%;Unknown;;;;7,9;wt%;TITR;;;;;;;0,17;wt%;AAS;8,07;wt%;AAS;11;wt%;Unknown;;;;1,9;wt%;Unknown;0,6;wt%;AAS;0,13;wt%;COL;;;;;;;;;;0,27;wt%;TITR;0,65;wt%;TITR;;;;;;;;;;110;ppm;Unknown;49;ppm;Unknown;;;;;;;68;ppm;Unknown;0,84;ppm;INAA;;;;0,02;ppm;INAA;;;;;;;;;;;;;;;;;;;;;;;;;;;;;;;;;;;;;;;;;;;;;;;;;;;;;;;;;;;;;;;;;;;;;;;;;;;;;;;;;;;;;;;;;;;;;;;;;;;;;;;;;;;;;;;;;;;;;;;;;10,1;ppm;INAA;21;ppm;INAA;;;;12;ppm;INAA;3,2;ppm;INAA;0,93;ppm;INAA;;;;0,59;ppm;INAA;;;;;;;;;;;;;2,1;ppm;INAA;0,31;ppm;INAA;;;;0,02;ppm;INAA;0;ppm;INAA;;;;;;;;;;;;;;;;;;;;;;0,84;ppm;INAA;23;ppm;INAA;;;;150;ppm;Unknown;;;;;;;;;;;;;49;ppm;Unknown;430;ppm;Unknown;0,9;ppm;INAA;;;;19;ppm;ICP;;;;2,3;ppm;INAA;;;;;;;;;;;;;;;;;;;;;;5,9;ppm;ICP;110;ppm;Unknown;;;;;;;;;;;;;;;;27;ppm;Unknown;;;;;;;;;;0,02;ppm;INAA;0,21;ppm;INAA;37;ppm;INAA;;;;180;ppm;Unknown;0,45;ppm;INAA;1,9;ppm;INAA;;;;;;;0,42;ppm;INAA;;;;;;;19;ppm;Unknown;68;ppm;Unknown;;;;;;;;;;;;;;;;;;;;;;;;;;;;0,84;ppm;INAA;0,84;ppm;INAA;;;;0,27;wt%;TITR;0,65;wt%;TITR;0,27;wt%;TITR;0,65;wt%;TITR;;;
GROSCAMP-W-244943;;GROSSMAN-CAMP;GROSSMAN, 1991;41,4167;-72,95;0,001;;;CONTINENTAL_RIFT;;;;"AAS; COL; ICP; INAA; TITR; Unknown";WHOLE ROCK;IGNEOUS:VOLCANIC:MAFIC;DIABASE;;52,1;wt%;COL;1,14;wt%;COL;13,8;wt%;COL;;;;2,51;wt%;Unknown;;;;8;wt%;TITR;;;;;;;0,17;wt%;AAS;7,82;wt%;AAS;11,1;wt%;Unknown;;;;1,93;wt%;Unknown;0,51;wt%;AAS;0,14;wt%;COL;;;;;;;;;;0,29;wt%;TITR;0,65;wt%;TITR;;;;;;;;;;94;ppm;Unknown;46;ppm;Unknown;;;;;;;72;ppm;Unknown;1,6;ppm;INAA;;;;0,03;ppm;INAA;;;;;;;;;;;;;;;;;;;;;;;;;;;;;;;;;;;;;;;;;;;;;;;;;;;;;;;;;;;;;;;;;;;;;;;;;;;;;;;;;;;;;;;;;;;;;;;;;;;;;;;;;;;;;;;;;;;;;;;;;10,5;ppm;INAA;22;ppm;INAA;;;;10;ppm;INAA;3,3;ppm;INAA;1;ppm;INAA;;;;0,63;ppm;INAA;;;;;;;;;;;;;2,1;ppm;INAA;0,32;ppm;INAA;;;;0,02;ppm;INAA;0;ppm;INAA;;;;;;;;;;;;;;;;;;;;;;1,6;ppm;INAA;8,7;ppm;INAA;;;;150;ppm;Unknown;;;;;;;;;;;;;46;ppm;Unknown;320;ppm;Unknown;1;ppm;INAA;;;;19;ppm;ICP;;;;2,5;ppm;INAA;;;;;;;;;;;;;;;;;;;;;;7,1;ppm;ICP;94;ppm;Unknown;;;;;;;;;;;;;;;;23;ppm;Unknown;;;;;;;;;;0,03;ppm;INAA;;;;36;ppm;INAA;;;;190;ppm;Unknown;0,49;ppm;INAA;1,8;ppm;INAA;;;;;;;0,49;ppm;INAA;;;;;;;20;ppm;Unknown;72;ppm;Unknown;;;;;;;;;;;;;;;;;;;;;;;;;;;;1,6;ppm;INAA;1,6;ppm;INAA;;;;0,29;wt%;TITR;0,65;wt%;TITR;0,29;wt%;TITR;0,65;wt%;TITR;;;
GROSCAMP-W-244957;;GROSSMAN-CAMP;GROSSMAN, 1991;41,8167;-72,8666;0,001;;;CONTINENTAL_RIFT;;;;"AAS; COL; ICP; INAA; TITR; Unknown";WHOLE ROCK;IGNEOUS:VOLCANIC:MAFIC;DIABASE;;52,2;wt%;COL;1,2;wt%;COL;14,3;wt%;COL;;;;1,84;wt%;Unknown;;;;8,7;wt%;TITR;;;;;;;0,17;wt%;AAS;7,25;wt%;AAS;11;wt%;Unknown;;;;2,17;wt%;Unknown;0,59;wt%;AAS;0,15;wt%;COL;;;;;;;;;;0,21;wt%;TITR;0,54;wt%;TITR;;;;;;;;;;80;ppm;Unknown;45;ppm;Unknown;;;;;;;71;ppm;Unknown;;;;;;;0,05;ppm;INAA;;;;;;;;;;;;;;;;;;;;;;;;;;;;;;;;;;;;;;;;;;;;;;;;;;;;;;;;;;;;;;;;;;;;;;;;;;;;;;;;;;;;;;;;;;;;;;;;;;;;;;;;;;;;;;;;;;;;;;;;;11;ppm;INAA;23,3;ppm;INAA;;;;14;ppm;INAA;3,6;ppm;INAA;1,1;ppm;INAA;;;;0,68;ppm;INAA;;;;;;;;;;;;;2,3;ppm;INAA;0,38;ppm;INAA;;;;0,02;ppm;INAA;;;;;;;;;;;;;;;;;;;;;;;;;;;;;;;;;;160;ppm;Unknown;;;;;;;;;;;;;45;ppm;Unknown;240;ppm;Unknown;0,49;ppm;INAA;;;;20;ppm;ICP;;;;2,7;ppm;INAA;;;;;;;;;;;;;;;;;;;;;;7;ppm;ICP;80;ppm;Unknown;;;;;;;;;;;;;;;;23;ppm;Unknown;;;;;;;;;;0,05;ppm;INAA;0,23;ppm;INAA;36;ppm;INAA;;;;200;ppm;Unknown;0,59;ppm;INAA;2,2;ppm;INAA;;;;;;;0,76;ppm;INAA;;;;;;;21;ppm;Unknown;71;ppm;Unknown;;;;;;;;;;;;;;;;;;;;;;;;;;;;;;;;;;;;;0,21;wt%;TITR;0,54;wt%;TITR;0,21;wt%;TITR;0,54;wt%;TITR;;;
GROSCAMP-W-244944;;GROSSMAN-CAMP;GROSSMAN, 1991;41,4667;-72,9333;0,001;;;CONTINENTAL_RIFT;;;;"AAS; COL; ICP; INAA; TITR; Unknown";WHOLE ROCK;IGNEOUS:VOLCANIC:MAFIC;DIABASE;;51,9;wt%;COL;1,15;wt%;COL;14,1;wt%;COL;;;;3,07;wt%;Unknown;;;;7,6;wt%;TITR;;;;;;;0,21;wt%;AAS;7,23;wt%;AAS;11;wt%;Unknown;;;;1,97;wt%;Unknown;0,56;wt%;AAS;0,14;wt%;COL;;;;;;;;;;0,19;wt%;TITR;0,98;wt%;TITR;;;;;;;;;;87;ppm;Unknown;46;ppm;Unknown;;;;;;;73;ppm;Unknown;;;;;;;0,04;ppm;INAA;;;;;;;;;;;;;;;;;;;;;;;;;;;;;;;;;;;;;;;;;;;;;;;;;;;;;;;;;;;;;;;;;;;;;;;;;;;;;;;;;;;;;;;;;;;;;;;;;;;;;;;;;;;;;;;;;;;;;;;;;10,7;ppm;INAA;23;ppm;INAA;;;;;;;3,5;ppm;INAA;1,1;ppm;INAA;;;;0,63;ppm;INAA;;;;;;;;;;;;;2,3;ppm;INAA;0,32;ppm;INAA;0,29;ppm;TITR;0,02;ppm;INAA;0;ppm;INAA;;;;;;;;;;;;;;;;;;;;;;;;;9,1;ppm;INAA;;;;150;ppm;Unknown;;;;;;;;;;;;;46;ppm;Unknown;270;ppm;Unknown;0,99;ppm;INAA;;;;19;ppm;ICP;;;;2,8;ppm;INAA;;;;;;;;;;;;;;;;;;;;;;7,4;ppm;ICP;87;ppm;Unknown;;;;;;;;;;11;ppm;Unknown;10;ppm;Unknown;22;ppm;Unknown;;;;0,7;ppm;Unknown;;;;0,04;ppm;INAA;0,26;ppm;INAA;36;ppm;INAA;;;;180;ppm;Unknown;0,51;ppm;INAA;2,2;ppm;INAA;;;;;;;0,35;ppm;INAA;;;;;;;20;ppm;Unknown;73;ppm;Unknown;;;;;;;;;;;;;;;;;;;;;;;;;;;;;;;;;;;;;0,19;wt%;TITR;0,98;wt%;TITR;0,19;wt%;TITR;0,98;wt%;TITR;;;
GROSCAMP-W-244945;;GROSSMAN-CAMP;GROSSMAN, 1991;41,4667;-72,9333;0,001;;;CONTINENTAL_RIFT;;;;"AAS; COL; ICP; INAA; TITR; Unknown";WHOLE ROCK;IGNEOUS:VOLCANIC:MAFIC;DIABASE;;52,2;wt%;COL;1,17;wt%;COL;14,5;wt%;COL;;;;2,97;wt%;Unknown;;;;7,8;wt%;TITR;;;;;;;0,17;wt%;AAS;7,09;wt%;AAS;10,6;wt%;Unknown;;;;2,24;wt%;Unknown;0,64;wt%;AAS;0,15;wt%;COL;;;;;;;;;;0,35;wt%;TITR;0,65;wt%;TITR;;;;;;;;;;81;ppm;Unknown;46;ppm;Unknown;;;;;;;69;ppm;Unknown;;;;;;;0,04;ppm;INAA;;;;;;;;;;;;;;;;;;;;;;;;;;;;;;;;;;;;;;;;;;;;;;;;;;;;;;;;;;;;;;;;;;;;;;;;;;;;;;;;;;;;;;;;;;;;;;;;;;;;;;;;;;;;;;;;;;;;;;;;;11,1;ppm;INAA;23;ppm;INAA;;;;12;ppm;INAA;3,6;ppm;INAA;1,1;ppm;INAA;;;;0,63;ppm;INAA;;;;;;;;;;;;;2,4;ppm;INAA;0,3;ppm;INAA;0,01;ppm;TITR;0,02;ppm;INAA;0;ppm;INAA;;;;;;;;;;;;;;;;;;;;;;;;;;;;;;;190;ppm;Unknown;;;;;;;;;;;;;46;ppm;Unknown;270;ppm;Unknown;0,96;ppm;INAA;;;;19;ppm;ICP;;;;2,5;ppm;INAA;;;;;;;;;;;;;;;;;;;;;;7,4;ppm;ICP;81;ppm;Unknown;;;;;;;;;;;;;;;;28;ppm;Unknown;;;;;;;;;;0,04;ppm;INAA;;;;36;ppm;INAA;;;;200;ppm;Unknown;0,52;ppm;INAA;2,2;ppm;INAA;;;;;;;;;;;;;;;;20;ppm;Unknown;69;ppm;Unknown;;;;;;;;;;;;;;;;;;;;;;;;;;;;;;;;;;;;;0,35;wt%;TITR;0,65;wt%;TITR;0,35;wt%;TITR;0,65;wt%;TITR;;;
GROSCAMP-W-244946;;GROSSMAN-CAMP;GROSSMAN, 1991;41,5;-72,9167;0,001;;;CONTINENTAL_RIFT;;;;"AAS; COL; ICP; INAA; TITR; Unknown";WHOLE ROCK;IGNEOUS:VOLCANIC:MAFIC;DIABASE;;52;wt%;COL;1,16;wt%;COL;14,1;wt%;COL;;;;3,13;wt%;Unknown;;;;7,5;wt%;TITR;;;;;;;0,27;wt%;AAS;7,5;wt%;AAS;10,6;wt%;Unknown;;;;1,93;wt%;Unknown;0,58;wt%;AAS;0,15;wt%;COL;;;;;;;;;;0,29;wt%;TITR;0,91;wt%;TITR;;;;;;;;;;86;ppm;Unknown;45;ppm;Unknown;;;;;;;72;ppm;Unknown;;;;;;;0,02;ppm;INAA;;;;;;;;;;;;;;;;;;;;;;;;;;;;;;;;;;;;;;;;;;;;;;;;;;;;;;;;;;;;;;;;;;;;;;;;;;;;;;;;;;;;;;;;;;;;;;;;;;;;;;;;;;;;;;;;;;;;;;;;;10,6;ppm;INAA;21,5;ppm;INAA;;;;12;ppm;INAA;3,4;ppm;INAA;1,1;ppm;INAA;;;;0,57;ppm;INAA;;;;;;;;;;;;;2,3;ppm;INAA;0,36;ppm;INAA;0,08;ppm;TITR;0,02;ppm;INAA;0;ppm;INAA;;;;;;;;;;;;;;;;;;;;;;;;;6,8;ppm;INAA;;;;160;ppm;Unknown;;;;;;;;;;;;;45;ppm;Unknown;260;ppm;Unknown;0,66;ppm;INAA;;;;20;ppm;ICP;;;;2,4;ppm;INAA;;;;;;;;;;;;;;;;;;;;;;6,9;ppm;ICP;86;ppm;Unknown;;;;;;;;;;;;;;;;21;ppm;Unknown;;;;;;;;;;0,02;ppm;INAA;;;;36;ppm;INAA;;;;180;ppm;Unknown;0,49;ppm;INAA;2,2;ppm;INAA;;;;;;;0,51;ppm;INAA;;;;;;;20;ppm;Unknown;72;ppm;Unknown;;;;;;;;;;;;;;;;;;;;;;;;;;;;;;;;;;;;;0,29;wt%;TITR;0,91;wt%;TITR;0,29;wt%;TITR;0,91;wt%;TITR;;;
GROSCAMP-W-244947;;GROSSMAN-CAMP;GROSSMAN, 1991;41,5;-72,9167;0,001;;;CONTINENTAL_RIFT;;;;"AAS; COL; ICP; INAA; TITR; Unknown";WHOLE ROCK;IGNEOUS:VOLCANIC:MAFIC;DIABASE;;52,3;wt%;COL;1,12;wt%;COL;14,6;wt%;COL;;;;2,57;wt%;Unknown;;;;7,8;wt%;TITR;;;;;;;0,18;wt%;AAS;7,14;wt%;AAS;11,1;wt%;Unknown;;;;2,09;wt%;Unknown;0,55;wt%;AAS;0,15;wt%;COL;;;;;;;;;;0,4;wt%;TITR;0,41;wt%;TITR;;;;;;;;;;77;ppm;Unknown;44;ppm;Unknown;;;;;;;67;ppm;Unknown;;;;;;;0,03;ppm;INAA;;;;;;;;;;;;;;;;;;;;;;;;;;;;;;;;;;;;;;;;;;;;;;;;;;;;;;;;;;;;;;;;;;;;;;;;;;;;;;;;;;;;;;;;;;;;;;;;;;;;;;;;;;;;;;;;;;;;;;;;;10;ppm;INAA;21;ppm;INAA;;;;12;ppm;INAA;3,3;ppm;INAA;1,1;ppm;INAA;;;;0,61;ppm;INAA;;;;;;;;;;;;;2,1;ppm;INAA;0,31;ppm;INAA;0,01;ppm;TITR;0,02;ppm;INAA;;;;;;;;;;;;;;;;;;;;;;;;;;;;;;;;;;160;ppm;Unknown;;;;;;;;;;;;;44;ppm;Unknown;240;ppm;Unknown;0,48;ppm;INAA;;;;20;ppm;ICP;;;;2,4;ppm;INAA;;;;;;;;;;;;;;;;;;;;;;6,9;ppm;ICP;77;ppm;Unknown;;;;;;;;;;;;;;;;25;ppm;Unknown;;;;;;;;;;0,03;ppm;INAA;;;;36;ppm;INAA;;;;210;ppm;Unknown;0,46;ppm;INAA;2;ppm;INAA;;;;;;;0,47;ppm;INAA;;;;;;;20;ppm;Unknown;67;ppm;Unknown;;;;;;;;;;;;;;;;;;;;;;;;;;;;;;;;;;;;;0,4;wt%;TITR;0,41;wt%;TITR;0,4;wt%;TITR;0,41;wt%;TITR;;;
GROSCAMP-W-244948;;GROSSMAN-CAMP;GROSSMAN, 1991;41,5;-72,9167;0,001;;;CONTINENTAL_RIFT;;;;"AAS; COL; ICP; INAA; TITR; Unknown";WHOLE ROCK;IGNEOUS:VOLCANIC:MAFIC;DIABASE;;51,9;wt%;COL;1,33;wt%;COL;15,7;wt%;COL;;;;3,11;wt%;Unknown;;;;7,7;wt%;TITR;;;;;;;0,18;wt%;AAS;5,38;wt%;AAS;10,8;wt%;Unknown;;;;2,43;wt%;Unknown;0,62;wt%;AAS;0,16;wt%;COL;;;;;;;;;;0,33;wt%;TITR;0,59;wt%;TITR;;;;;;;;;;58;ppm;Unknown;42;ppm;Unknown;;;;;;;76;ppm;Unknown;;;;;;;0,04;ppm;INAA;;;;;;;;;;;;;;;;;;;;;;;;;;;;;;;;;;;;;;;;;;;;;;;;;;;;;;;;;;;;;;;;;;;;;;;;;;;;;;;;;;;;;;;;;;;;;;;;;;;;;;;;;;;;;;;;;;;;;;;;;12,6;ppm;INAA;26;ppm;INAA;;;;16;ppm;INAA;3,9;ppm;INAA;1,2;ppm;INAA;;;;0,72;ppm;INAA;;;;;;;;;;;;;2,5;ppm;INAA;0,35;ppm;INAA;0,02;ppm;TITR;0,02;ppm;INAA;;;;;;;;;;;;;;;;;;;;;;;;;;;;;;;;;;170;ppm;Unknown;;;;;;;;;;;;;42;ppm;Unknown;113;ppm;Unknown;0,5;ppm;INAA;;;;21;ppm;ICP;;;;2,89;ppm;INAA;;;;;;;;;;;;;;;;;;;;;;8,2;ppm;ICP;58;ppm;Unknown;;;;;;;;;;;;;;;;26;ppm;Unknown;;;;;;;;;;0,04;ppm;INAA;0,3;ppm;INAA;33;ppm;INAA;;;;230;ppm;Unknown;0,6;ppm;INAA;2,4;ppm;INAA;;;;;;;0,53;ppm;INAA;;;;;;;22;ppm;Unknown;76;ppm;Unknown;;;;;;;;;;;;;;;;;;;;;;;;;;;;;;;;;;;;;0,33;wt%;TITR;0,59;wt%;TITR;0,33;wt%;TITR;0,59;wt%;TITR;;;
GROSCAMP-W-244949;;GROSSMAN-CAMP;GROSSMAN, 1991;41,5;-72,9167;0,001;;;CONTINENTAL_RIFT;;;;"AAS; COL; ICP; INAA; TITR; Unknown";WHOLE ROCK;IGNEOUS:VOLCANIC:MAFIC;DIABASE;;51,1;wt%;COL;1,3;wt%;COL;15,4;wt%;COL;;;;2,95;wt%;Unknown;;;;8,1;wt%;TITR;;;;;;;0,17;wt%;AAS;5,33;wt%;AAS;9,86;wt%;Unknown;;;;2,97;wt%;Unknown;0,86;wt%;AAS;0,15;wt%;COL;;;;;;;;;;0,33;wt%;TITR;0,97;wt%;TITR;;;;;;;;;;58;ppm;Unknown;44;ppm;Unknown;;;;;;;80;ppm;Unknown;0,96;ppm;INAA;;;;0,04;ppm;INAA;;;;;;;;;;;;;;;;;;;;;;;;;;;;;;;;;;;;;;;;;;;;;;;;;;;;;;;;;;;;;;;;;;;;;;;;;;;;;;;;;;;;;;;;;;;;;;;;;;;;;;;;;;;;;;;;;;;;;;;;;12,9;ppm;INAA;27,1;ppm;INAA;;;;15;ppm;INAA;4,1;ppm;INAA;1,27;ppm;INAA;;;;0,72;ppm;INAA;;;;;;;;;;;;;2,4;ppm;INAA;0,4;ppm;INAA;0,15;ppm;TITR;0,03;ppm;INAA;0,01;ppm;INAA;;;;;;;;;;;;;;;;;;;;;;0,96;ppm;INAA;;;;;;;230;ppm;Unknown;;;;;;;;;;;;;44;ppm;Unknown;62;ppm;Unknown;1,7;ppm;INAA;;;;23;ppm;ICP;;;;3;ppm;INAA;;;;;;;;;;;;;;;;;;;;;;8,5;ppm;ICP;58;ppm;Unknown;;;;;;;;;;;;;;;;30;ppm;Unknown;;;;;;;;;;0,04;ppm;INAA;0,21;ppm;INAA;35;ppm;INAA;;;;320;ppm;Unknown;0,59;ppm;INAA;2,7;ppm;INAA;;;;;;;0,45;ppm;INAA;;;;;;;24;ppm;Unknown;80;ppm;Unknown;;;;;;;;;;;;;;;;;;;;;;;;;;;;0,96;ppm;INAA;0,96;ppm;INAA;;;;0,33;wt%;TITR;0,97;wt%;TITR;0,33;wt%;TITR;0,97;wt%;TITR;;;
GROSCAMP-W-244950;;GROSSMAN-CAMP;GROSSMAN, 1991;41,5333;-72,8833;0,001;;;CONTINENTAL_RIFT;;;;"AAS; COL; ICP; INAA; TITR; Unknown";WHOLE ROCK;IGNEOUS:VOLCANIC:MAFIC;DIABASE;;52,1;wt%;COL;1,44;wt%;COL;14,3;wt%;COL;;;;3,77;wt%;Unknown;;;;7,7;wt%;TITR;;;;;;;0,18;wt%;AAS;5,55;wt%;AAS;8,95;wt%;Unknown;;;;2,75;wt%;Unknown;1,36;wt%;AAS;0,18;wt%;COL;;;;;;;;;;0,36;wt%;TITR;1,2;wt%;TITR;;;;;;;;;;51;ppm;Unknown;42;ppm;Unknown;;;;;;;84;ppm;Unknown;1,5;ppm;INAA;;;;0,03;ppm;INAA;;;;;;;;;;;;;;;;;;;;;;;;;;;;;;;;;;;;;;;;;;;;;;;;;;;;;;;;;;;;;;;;;;;;;;;;;;;;;;;;;;;;;;;;;;;;;;;;;;;;;;;;;;;;;;;;;;;;;;;;;13,5;ppm;INAA;27;ppm;INAA;;;;15;ppm;INAA;4,3;ppm;INAA;1,27;ppm;INAA;;;;0,76;ppm;INAA;;;;;;;;;;;;;2,6;ppm;INAA;0,37;ppm;INAA;0,02;ppm;TITR;0,03;ppm;INAA;0,01;ppm;INAA;;;;;;;;;;;;;;;;;;;;;;1,5;ppm;INAA;13;ppm;INAA;;;;270;ppm;Unknown;;;;;;;;;;;;;42;ppm;Unknown;70;ppm;Unknown;0,52;ppm;INAA;;;;21;ppm;ICP;;;;3;ppm;INAA;;;;;;;;;;;;;;;;;;;;;;9;ppm;ICP;51;ppm;Unknown;;;;;;;;;;13;ppm;Unknown;8,8;ppm;Unknown;46;ppm;Unknown;;;;0,5;ppm;Unknown;;;;0,03;ppm;INAA;0,18;ppm;INAA;35;ppm;INAA;;;;290;ppm;Unknown;0,63;ppm;INAA;2,5;ppm;INAA;;;;;;;0,69;ppm;INAA;;;;;;;25;ppm;Unknown;84;ppm;Unknown;;;;;;;;;;;;;;;;;;;;;;;;;;;;1,5;ppm;INAA;1,5;ppm;INAA;;;;0,36;wt%;TITR;1,2;wt%;TITR;0,36;wt%;TITR;1,2;wt%;TITR;;;
GROSCAMP-W-244951;;GROSSMAN-CAMP;GROSSMAN, 1991;41,5666;-72,8667;0,001;;;CONTINENTAL_RIFT;;;;"AAS; COL; ICP; INAA; TITR; Unknown";WHOLE ROCK;IGNEOUS:VOLCANIC:MAFIC;DIABASE;;51,4;wt%;COL;1,09;wt%;COL;13,8;wt%;COL;;;;3,1;wt%;Unknown;;;;7,7;wt%;TITR;;;;;;;0,18;wt%;AAS;7,82;wt%;AAS;8,22;wt%;Unknown;;;;2,01;wt%;Unknown;1,6;wt%;AAS;0,13;wt%;COL;;;;;;;;;;0,23;wt%;TITR;1,5;wt%;TITR;;;;;;;;;;81;ppm;Unknown;44;ppm;Unknown;;;;;;;73;ppm;Unknown;1,1;ppm;INAA;;;;0,01;ppm;INAA;;;;;;;;;;;;;;;;;;;;;;;;;;;;;;;;;;;;;;;;;;;;;;;;;;;;;;;;;;;;;;;;;;;;;;;;;;;;;;;;;;;;;;;;;;;;;;;;;;;;;;;;;;;;;;;;;;;;;;;;;11,9;ppm;INAA;25;ppm;INAA;;;;13;ppm;INAA;3,7;ppm;INAA;1,1;ppm;INAA;;;;0,63;ppm;INAA;;;;;;;;;;;;;2,2;ppm;INAA;0,34;ppm;INAA;0,01;ppm;TITR;0,02;ppm;INAA;0;ppm;INAA;;;;;;;;;;;;;;;;;;;;;;1,1;ppm;INAA;;;;;;;170;ppm;Unknown;;;;;;;;;;;;;44;ppm;Unknown;266;ppm;Unknown;0,75;ppm;INAA;;;;19;ppm;ICP;;;;2,7;ppm;INAA;;;;;;;;;;;;;;;;;;;;;;8,1;ppm;ICP;81;ppm;Unknown;;;;;;;;;;;;;;;;25;ppm;Unknown;;;;;;;;;;0,01;ppm;INAA;0,16;ppm;INAA;36;ppm;INAA;;;;190;ppm;Unknown;0,61;ppm;INAA;2,4;ppm;INAA;;;;;;;;;;;;;;;;22;ppm;Unknown;73;ppm;Unknown;;;;;;;;;;;;;;;;;;;;;;;;;;;;1,1;ppm;INAA;1,1;ppm;INAA;;;;0,23;wt%;TITR;1,5;wt%;TITR;0,23;wt%;TITR;1,5;wt%;TITR;;;