SAMPLE ID;IGSN;EXPEDITION ID;REFERENCES;LATITUDE;LONGITUDE;LOC PREC;MIN ELEVATION;MAX ELEVATION;TECTONIC SETTING;MIN AGE;AGE;MAX AGE;METHOD;ANALYZED MATERIAL;ROCK TYPE;ROCK NAME;MINERAL;SIO2;SIO2 Units;SIO2 Method;TIO2;TIO2 Units;TIO2 Method;AL2O3;AL2O3 Units;AL2O3 Method;CR2O3;CR2O3 Units;CR2O3 Method;FE2O3;FE2O3 Units;FE2O3 Method;FE2O3T;FE2O3T Units;FE2O3T Method;FEO;FEO Units;FEO Method;FEOT;FEOT Units;FEOT Method;NIO;NIO Units;NIO Method;MNO;MNO Units;MNO Method;MGO;MGO Units;MGO Method;CAO;CAO Units;CAO Method;SRO;SRO Units;SRO Method;NA2O;NA2O Units;NA2O Method;K2O;K2O Units;K2O Method;P2O5;P2O5 Units;P2O5 Method;BAO;BAO Units;BAO Method;LOI;LOI Units;LOI Method;H2O;H2O Units;H2O Method;H2O_M;H2O_M Units;H2O_M Method;H2O_P;H2O_P Units;H2O_P Method;SO3;SO3 Units;SO3 Method;COO;COO Units;COO Method;MN;MN Units;MN Method;NI;NI Units;NI Method;CO;CO Units;CO Method;CU;CU Units;CU Method;CD;CD Units;CD Method;ZN;ZN Units;ZN Method;AS;AS Units;AS Method;AG;AG Units;AG Method;S;S Units;S Method;ZRO2;ZRO2 Units;ZRO2 Method;AL;AL Units;AL Method;CA;CA Units;CA Method;SR87_SR86;SR87_SR86 Units;SR87_SR86 Method;SR87_SR86_INI;SR87_SR86_INI Units;SR87_SR86_INI Method;RB87_SR86;RB87_SR86 Units;RB87_SR86 Method;ND143_ND144;ND143_ND144 Units;ND143_ND144 Method;ND143_ND144_INI;ND143_ND144_INI Units;ND143_ND144_INI Method;SM147_ND144;SM147_ND144 Units;SM147_ND144 Method;E_ND;E_ND Units;E_ND Method;E_ND_INI;E_ND_INI Units;E_ND_INI Method;PB204_PB206;PB204_PB206 Units;PB204_PB206 Method;PB206_PB204;PB206_PB204 Units;PB206_PB204 Method;PB206_PB204_INI;PB206_PB204_INI Units;PB206_PB204_INI Method;PB207_PB204;PB207_PB204 Units;PB207_PB204 Method;PB207_PB204_INI;PB207_PB204_INI Units;PB207_PB204_INI Method;PB207_PB206;PB207_PB206 Units;PB207_PB206 Method;PB208_PB204;PB208_PB204 Units;PB208_PB204 Method;PB208_PB204_INI;PB208_PB204_INI Units;PB208_PB204_INI Method;PB208_PB206;PB208_PB206 Units;PB208_PB206 Method;HF176_HF177;HF176_HF177 Units;HF176_HF177 Method;RE187_OS188;RE187_OS188 Units;RE187_OS188 Method;OS187_OS188;OS187_OS188 Units;OS187_OS188 Method;OS187_OS188_INI;OS187_OS188_INI Units;OS187_OS188_INI Method;G_OS;G_OS Units;G_OS Method;G_OS_INI;G_OS_INI Units;G_OS_INI Method;ND143_ND144_INI;ND143_ND144_INI Units;ND143_ND144_INI Method;PB206_PB204_INI;PB206_PB204_INI Units;PB206_PB204_INI Method;PB207_PB204_INI;PB207_PB204_INI Units;PB207_PB204_INI Method;PB208_PB204_INI;PB208_PB204_INI Units;PB208_PB204_INI Method;SR87_SR86_INI;SR87_SR86_INI Units;SR87_SR86_INI Method;HE;HE Units;HE Method;HE3;HE3 Units;HE3 Method;HE3_HE4_R_RA;HE3_HE4_R_RA Units;HE3_HE4_R_RA Method;AR36;AR36 Units;AR36 Method;AR40;AR40 Units;AR40 Method;AR40_AR36;AR40_AR36 Units;AR40_AR36 Method;NE20;NE20 Units;NE20 Method;NE20_NE22;NE20_NE22 Units;NE20_NE22 Method;NE21_NE22;NE21_NE22 Units;NE21_NE22 Method;LA;LA Units;LA Method;CE;CE Units;CE Method;PR;PR Units;PR Method;ND;ND Units;ND Method;SM;SM Units;SM Method;EU;EU Units;EU Method;GD;GD Units;GD Method;TB;TB Units;TB Method;DY;DY Units;DY Method;HO;HO Units;HO Method;ER;ER Units;ER Method;TM;TM Units;TM Method;YB;YB Units;YB Method;LU;LU Units;LU Method;CO2;CO2 Units;CO2 Method;F;F Units;F Method;CL;CL Units;CL Method;U238_PB204;U238_PB204 Units;U238_PB204 Method;TH230_TH232;TH230_TH232 Units;TH230_TH232 Method;RA226_ACTIVITY;RA226_ACTIVITY Units;RA226_ACTIVITY Method;PB210_RA226;PB210_RA226 Units;PB210_RA226 Method;PB210_ACTIVITY;PB210_ACTIVITY Units;PB210_ACTIVITY Method;AG;AG Units;AG Method;AL;AL Units;AL Method;AS;AS Units;AS Method;AU;AU Units;AU Method;B;B Units;B Method;BA;BA Units;BA Method;BE;BE Units;BE Method;BI;BI Units;BI Method;CA;CA Units;CA Method;CD;CD Units;CD Method;CO;CO Units;CO Method;CR;CR Units;CR Method;CS;CS Units;CS Method;CU;CU Units;CU Method;GA;GA Units;GA Method;GER;GER Units;GER Method;HF;HF Units;HF Method;INDIUM;INDIUM Units;INDIUM Method;IR;IR Units;IR Method;K;K Units;K Method;LI;LI Units;LI Method;MN;MN Units;MN Method;MO;MO Units;MO Method;NA;NA Units;NA Method;NB;NB Units;NB Method;NI;NI Units;NI Method;OS;OS Units;OS Method;P;P Units;P Method;PB;PB Units;PB Method;PD;PD Units;PD Method;PT;PT Units;PT Method;RB;RB Units;RB Method;RE;RE Units;RE Method;RH;RH Units;RH Method;RU;RU Units;RU Method;S;S Units;S Method;SB;SB Units;SB Method;SC;SC Units;SC Method;SN;SN Units;SN Method;SR;SR Units;SR Method;TA;TA Units;TA Method;TH;TH Units;TH Method;TI;TI Units;TI Method;TL;TL Units;TL Method;U;U Units;U Method;V;V Units;V Method;W;W Units;W Method;Y;Y Units;Y Method;ZN;ZN Units;ZN Method;ZR;ZR Units;ZR Method;DELTA_O18;DELTA_O18 Units;DELTA_O18 Method;DELTA_C13;DELTA_C13 Units;DELTA_C13 Method;DELTA_MO98;DELTA_MO98 Units;DELTA_MO98 Method;DELTA_ZN66;DELTA_ZN66 Units;DELTA_ZN66 Method;DELTA_ZN68;DELTA_ZN68 Units;DELTA_ZN68 Method;OS188;OS188 Units;OS188 Method;FE3P_FET;FE3P_FET Units;FE3P_FET Method;TI;TI Units;TI Method;AS;AS Units;AS Method;AS;AS Units;AS Method;GER;GER Units;GER Method;H2O_M;H2O_M Units;H2O_M Method;H2O_P;H2O_P Units;H2O_P Method;H2O_M;H2O_M Units;H2O_M Method;H2O_P;H2O_P Units;H2O_P Method;INDIUM;INDIUM Units;INDIUM Method
GROSCAMP-W-245394;;GROSSMAN-CAMP;GROSSMAN, 1991;40,2;-76,8722;0,001;;;CONTINENTAL_RIFT;;;;"AAS; COL; ICPMS; INAA; TITR; Unknown";WHOLE ROCK;IGNEOUS:VOLCANIC:MAFIC;DIABASE;;52,3;wt%;COL;0,65;wt%;COL;13,3;wt%;COL;;;;1,5;wt%;Unknown;;;;7;wt%;TITR;;;;;;;0,16;wt%;AAS;10,8;wt%;AAS;12,4;wt%;Unknown;;;;1,59;wt%;Unknown;0,32;wt%;AAS;0,07;wt%;COL;;;;;;;;;;0,1;wt%;TITR;0,31;wt%;TITR;;;;;;;;;;134;ppm;Unknown;47;ppm;Unknown;57;ppm;Unknown;;;;49;ppm;Unknown;;;;;;;;;;;;;;;;;;;;;;;;;;;;;;;;;;;;;;;;;;;;;;;;;;;;;;;;;;;;;;;;;;;;;;;;;;;;;;;;;;;;;;;;;;;;;;;;;;;;;;;;;;;;;;;;;;;;;;;;;;;;;;;;;;5,6;ppm;INAA;13;ppm;INAA;;;;7,2;ppm;INAA;1,91;ppm;INAA;0,66;ppm;INAA;;;;0,36;ppm;INAA;;;;;;;;;;;;;1,3;ppm;INAA;0,21;ppm;INAA;0,01;ppm;TITR;;;;;;;;;;;;;;;;;;;;;;;;;;;;;;;;;;;;;94;ppm;Unknown;;;;;;;;;;;;;47;ppm;Unknown;600;ppm;Unknown;0,69;ppm;INAA;57;ppm;Unknown;;;;;;;1,3;ppm;INAA;;;;1,1;ppm;ICPMS;;;;;;;;;;;;;;;;;;;134;ppm;Unknown;;;;;;;;;;3,4;ppm;Unknown;22;ppm;Unknown;9;ppm;Unknown;;;;0,9;ppm;Unknown;;;;;;;;;;38;ppm;INAA;;;;157;ppm;Unknown;0,29;ppm;INAA;1;ppm;INAA;;;;;;;0,6;ppm;INAA;;;;;;;;;;49;ppm;Unknown;56;ppm;Unknown;;;;;;;;;;;;;;;;;;;;;;;;;;;;;;;;;;0,1;wt%;TITR;0,31;wt%;TITR;0,1;wt%;TITR;0,31;wt%;TITR;;;
GROSCAMP-W-245395;;GROSSMAN-CAMP;GROSSMAN, 1991;40,2;-76,8722;0,001;;;CONTINENTAL_RIFT;;;;"AAS; COL; ICPMS; INAA; TITR; Unknown";WHOLE ROCK;IGNEOUS:VOLCANIC:MAFIC;DIABASE;;52,3;wt%;COL;0,67;wt%;COL;13;wt%;COL;;;;1,29;wt%;Unknown;;;;7,6;wt%;TITR;;;;;;;0,17;wt%;AAS;10,8;wt%;AAS;12,4;wt%;Unknown;;;;1,58;wt%;Unknown;0,32;wt%;AAS;0,07;wt%;COL;;;;;;;;;;0,1;wt%;TITR;0,4;wt%;TITR;;;;;;;;;;141;ppm;Unknown;49;ppm;Unknown;42;ppm;Unknown;;;;51;ppm;Unknown;;;;;;;;;;;;;;;;;;;;;;;;;;;;;;;;;;;;;;;;;;;;;;;;;;;;;;;;;;;;;;;;;;;;;;;;;;;;;;;;;;;;;;;;;;;;;;;;;;;;;;;;;;;;;;;;;;;;;;;;;;;;;;;;;;6;ppm;INAA;15;ppm;INAA;;;;7,8;ppm;INAA;2,07;ppm;INAA;0,72;ppm;INAA;;;;0,4;ppm;INAA;;;;;;;;;;;;;1,4;ppm;INAA;0,2;ppm;INAA;0,02;ppm;TITR;;;;;;;;;;;;;;;;;;;;;;;;;;;;;;;;;;;;;89;ppm;Unknown;;;;;;;;;;;;;49;ppm;Unknown;680;ppm;Unknown;0,58;ppm;INAA;42;ppm;Unknown;;;;;;;1,5;ppm;INAA;;;;1,1;ppm;ICPMS;;;;;;;;;;;;;;;;;;;141;ppm;Unknown;;;;;;;;;;4,7;ppm;Unknown;22;ppm;Unknown;10;ppm;Unknown;;;;1,1;ppm;Unknown;;;;;;;;;;40;ppm;INAA;;;;149;ppm;Unknown;0,29;ppm;INAA;1,1;ppm;INAA;;;;;;;;;;;;;;;;;;;51;ppm;Unknown;56;ppm;Unknown;;;;;;;;;;;;;;;;;;;;;;;;;;;;;;;;;;0,1;wt%;TITR;0,4;wt%;TITR;0,1;wt%;TITR;0,4;wt%;TITR;;;
GROSCAMP-W-245396;;GROSSMAN-CAMP;GROSSMAN, 1991;40,2;-76,8722;0,001;;;CONTINENTAL_RIFT;;;;"AAS; COL; ICPMS; INAA; TITR; Unknown";WHOLE ROCK;IGNEOUS:VOLCANIC:MAFIC;DIABASE;;52,4;wt%;COL;0,75;wt%;COL;11,7;wt%;COL;;;;1,57;wt%;Unknown;;;;7,9;wt%;TITR;;;;;;;0,18;wt%;AAS;11,8;wt%;AAS;11,9;wt%;Unknown;;;;1,48;wt%;Unknown;0,34;wt%;AAS;0,08;wt%;COL;;;;;;;;;;0,17;wt%;TITR;0,29;wt%;TITR;;;;;;;;;;158;ppm;Unknown;52;ppm;Unknown;62;ppm;Unknown;;;;53;ppm;Unknown;;;;;;;;;;;;;;;;;;;;;;;;;;;;;;;;;;;;;;;;;;;;;;;;;;;;;;;;;;;;;;;;;;;;;;;;;;;;;;;;;;;;;;;;;;;;;;;;;;;;;;;;;;;;;;;;;;;;;;;;;;;;;;;;;;6,7;ppm;INAA;14;ppm;INAA;;;;8,5;ppm;INAA;2,29;ppm;INAA;0,72;ppm;INAA;;;;0,48;ppm;INAA;;;;;;;;;;;;;1,5;ppm;INAA;0,23;ppm;INAA;0,04;ppm;TITR;;;;;;;;;;;;;;;;;;;;;;;;;;;;;;;;;;;;;105;ppm;Unknown;;;;;;;;;;;;;52;ppm;Unknown;740;ppm;Unknown;0,37;ppm;INAA;62;ppm;Unknown;;;;;;;1,5;ppm;INAA;;;;1,1;ppm;ICPMS;;;;;;;;;;;;;;;;;;;158;ppm;Unknown;;;;;;;;;;5,6;ppm;Unknown;24;ppm;Unknown;11;ppm;Unknown;;;;1;ppm;Unknown;0,5;ppm;ICPMS;;;;;;;40;ppm;INAA;;;;143;ppm;Unknown;0,33;ppm;INAA;1,4;ppm;INAA;;;;;;;0,37;ppm;INAA;;;;;;;;;;53;ppm;Unknown;65;ppm;Unknown;;;;;;;;;;;;;;;;;;;;;;;;;;;;;;;;;;0,17;wt%;TITR;0,29;wt%;TITR;0,17;wt%;TITR;0,29;wt%;TITR;;;
GROSCAMP-W-245397;;GROSSMAN-CAMP;GROSSMAN, 1991;40,2;-76,8722;0,001;;;CONTINENTAL_RIFT;;;;"AAS; COL; ICPMS; INAA; TITR; Unknown";WHOLE ROCK;IGNEOUS:VOLCANIC:MAFIC;DIABASE;;52,2;wt%;COL;0,71;wt%;COL;12,8;wt%;COL;;;;1,5;wt%;Unknown;;;;7,4;wt%;TITR;;;;;;;0,17;wt%;AAS;11;wt%;AAS;12,1;wt%;Unknown;;;;1,6;wt%;Unknown;0,34;wt%;AAS;0,08;wt%;COL;;;;;;;;;;0,12;wt%;TITR;0,36;wt%;TITR;;;;;;;;;;142;ppm;Unknown;49;ppm;Unknown;53;ppm;Unknown;;;;48;ppm;Unknown;;;;;;;;;;;;;;;;;;;;;;;;;;;;;;;;;;;;;;;;;;;;;;;;;;;;;;;;;;;;;;;;;;;;;;;;;;;;;;;;;;;;;;;;;;;;;;;;;;;;;;;;;;;;;;;;;;;;;;;;;;;;;;;;;;6,4;ppm;INAA;15;ppm;INAA;;;;9,8;ppm;INAA;2,18;ppm;INAA;0,68;ppm;INAA;;;;0,45;ppm;INAA;;;;;;;;;;;;;1,5;ppm;INAA;0,2;ppm;INAA;0,02;ppm;TITR;;;;;;;;;;;;;;;;;;;;;;;;;;;;;;;;;;;;;99;ppm;Unknown;;;;;;;;;;;;;49;ppm;Unknown;730;ppm;Unknown;0,44;ppm;INAA;53;ppm;Unknown;;;;;;;1,6;ppm;INAA;;;;0,7;ppm;ICPMS;;;;;;;;;;;;;;;;;;;142;ppm;Unknown;;;;;;;;;;3;ppm;Unknown;16;ppm;Unknown;16;ppm;Unknown;;;;0,7;ppm;Unknown;;;;;;;;;;38;ppm;INAA;;;;161;ppm;Unknown;0,3;ppm;INAA;1,2;ppm;INAA;;;;;;;;;;;;;;;;;;;48;ppm;Unknown;62;ppm;Unknown;;;;;;;;;;;;;;;;;;;;;;;;;;;;;;;;;;0,12;wt%;TITR;0,36;wt%;TITR;0,12;wt%;TITR;0,36;wt%;TITR;;;
GROSCAMP-W-245398;;GROSSMAN-CAMP;GROSSMAN, 1991;40,2;-76,8722;0,001;;;CONTINENTAL_RIFT;;;;"AAS; COL; ICPMS; INAA; TITR; Unknown";WHOLE ROCK;IGNEOUS:VOLCANIC:MAFIC;DIABASE;;52,5;wt%;COL;0,73;wt%;COL;12,3;wt%;COL;;;;1,45;wt%;Unknown;;;;7,9;wt%;TITR;;;;;;;0,17;wt%;AAS;11,5;wt%;AAS;11,5;wt%;Unknown;;;;1,55;wt%;Unknown;0,36;wt%;AAS;0,09;wt%;COL;;;;;;;;;;0,1;wt%;TITR;0,39;wt%;TITR;;;;;;;;;;155;ppm;Unknown;51;ppm;Unknown;43;ppm;Unknown;;;;53;ppm;Unknown;;;;;;;;;;;;;;;;;;;;;;;;;;;;;;;;;;;;;;;;;;;;;;;;;;;;;;;;;;;;;;;;;;;;;;;;;;;;;;;;;;;;;;;;;;;;;;;;;;;;;;;;;;;;;;;;;;;;;;;;;;;;;;;;;;6,8;ppm;INAA;14;ppm;INAA;;;;7,7;ppm;INAA;2,29;ppm;INAA;0,68;ppm;INAA;;;;0,4;ppm;INAA;;;;;;;;;;;;;1,5;ppm;INAA;0,21;ppm;INAA;0,01;ppm;TITR;;;;;;;;;;;;;;;;;;;;;;;;;;;;;;;;;;;;;104;ppm;Unknown;;;;;;;;;;;;;51;ppm;Unknown;790;ppm;Unknown;0,44;ppm;INAA;43;ppm;Unknown;;;;;;;1,5;ppm;INAA;;;;1,2;ppm;ICPMS;;;;;;;;;;;;;;;;;;;155;ppm;Unknown;;;;;;;;;;6,8;ppm;Unknown;23;ppm;Unknown;8;ppm;Unknown;;;;1;ppm;Unknown;0,5;ppm;ICPMS;;;;;;;38;ppm;INAA;;;;142;ppm;Unknown;0,29;ppm;INAA;1,3;ppm;INAA;;;;;;;;;;;;;;;;;;;53;ppm;Unknown;66;ppm;Unknown;;;;;;;;;;;;;;;;;;;;;;;;;;;;;;;;;;0,1;wt%;TITR;0,39;wt%;TITR;0,1;wt%;TITR;0,39;wt%;TITR;;;
GROSCAMP-W-245399;;GROSSMAN-CAMP;GROSSMAN, 1991;40,2;-76,8722;0,001;;;CONTINENTAL_RIFT;;;;"AAS; COL; ICPMS; INAA; TITR; Unknown";WHOLE ROCK;IGNEOUS:VOLCANIC:MAFIC;DIABASE;;52,5;wt%;COL;0,79;wt%;COL;12;wt%;COL;;;;1,33;wt%;Unknown;;;;8,2;wt%;TITR;;;;;;;0,18;wt%;AAS;11,8;wt%;AAS;11,1;wt%;Unknown;;;;1,56;wt%;Unknown;0,37;wt%;AAS;0,09;wt%;COL;;;;;;;;;;0,07;wt%;TITR;0,28;wt%;TITR;;;;;;;;;;166;ppm;Unknown;52;ppm;Unknown;49;ppm;Unknown;;;;58;ppm;Unknown;;;;;;;;;;;;;;;;;;;;;;;;;;;;;;;;;;;;;;;;;;;;;;;;;;;;;;;;;;;;;;;;;;;;;;;;;;;;;;;;;;;;;;;;;;;;;;;;;;;;;;;;;;;;;;;;;;;;;;;;;;;;;;;;;;7;ppm;INAA;16;ppm;INAA;;;;7,8;ppm;INAA;2,29;ppm;INAA;0,71;ppm;INAA;;;;0,43;ppm;INAA;;;;;;;;;;;;;1,5;ppm;INAA;0,23;ppm;INAA;0,01;ppm;TITR;;;;;;;;;;;;;;;;;;;;;;;;;;;;;;;;;;;;;106;ppm;Unknown;;;;;;;;;;;;;52;ppm;Unknown;800;ppm;Unknown;0,57;ppm;INAA;49;ppm;Unknown;;;;;;;1,6;ppm;INAA;;;;1,2;ppm;ICPMS;;;;;;;;;;;;;;;;;;;166;ppm;Unknown;;;;;;;;;;6,6;ppm;Unknown;23;ppm;Unknown;14;ppm;Unknown;;;;1;ppm;Unknown;;;;;;;;;;37;ppm;INAA;;;;148;ppm;Unknown;0,32;ppm;INAA;1,3;ppm;INAA;;;;;;;0,28;ppm;INAA;;;;;;;;;;58;ppm;Unknown;67;ppm;Unknown;;;;;;;;;;;;;;;;;;;;;;;;;;;;;;;;;;0,07;wt%;TITR;0,28;wt%;TITR;0,07;wt%;TITR;0,28;wt%;TITR;;;
GROSCAMP-W-245400;;GROSSMAN-CAMP;GROSSMAN, 1991;40,2;-76,8722;0,001;;;CONTINENTAL_RIFT;;;;"AAS; COL; ICPMS; INAA; TITR; Unknown";WHOLE ROCK;IGNEOUS:VOLCANIC:MAFIC;DIABASE;;52,2;wt%;COL;0,86;wt%;COL;12,2;wt%;COL;;;;1,72;wt%;Unknown;;;;8,3;wt%;TITR;;;;;;;0,17;wt%;AAS;11,4;wt%;AAS;11,4;wt%;Unknown;;;;1,66;wt%;Unknown;0,43;wt%;AAS;0,1;wt%;COL;;;;;;;;;;0,1;wt%;TITR;0,47;wt%;TITR;;;;;;;;;;179;ppm;Unknown;54;ppm;Unknown;88;ppm;Unknown;;;;64;ppm;Unknown;;;;;;;;;;;;;;;;;;;;;;;;;;;;;;;;;;;;;;;;;;;;;;;;;;;;;;;;;;;;;;;;;;;;;;;;;;;;;;;;;;;;;;;;;;;;;;;;;;;;;;;;;;;;;;;;;;;;;;;;;;;;;;;;;;7,8;ppm;INAA;18;ppm;INAA;;;;8,8;ppm;INAA;2,64;ppm;INAA;0,81;ppm;INAA;;;;0,48;ppm;INAA;;;;;;;;;;;;;1,6;ppm;INAA;0,27;ppm;INAA;0,02;ppm;TITR;;;;;;;;;;;;;;;;;;;;;;;;;;;;;;;;;;;;;125;ppm;Unknown;;;;;;;;;;;;;54;ppm;Unknown;830;ppm;Unknown;0,78;ppm;INAA;88;ppm;Unknown;;;;;;;1,8;ppm;INAA;;;;1,3;ppm;ICPMS;;;;;;;;;;;;;;;;;;;179;ppm;Unknown;;;;;;;;;;2,5;ppm;Unknown;17;ppm;Unknown;11;ppm;Unknown;;;;0,9;ppm;Unknown;;;;;;;0,25;ppm;INAA;39;ppm;INAA;;;;153;ppm;Unknown;0,39;ppm;INAA;1,4;ppm;INAA;;;;;;;0,61;ppm;INAA;;;;;;;;;;64;ppm;Unknown;68;ppm;Unknown;;;;;;;;;;;;;;;;;;;;;;;;;;;;;;;;;;0,1;wt%;TITR;0,47;wt%;TITR;0,1;wt%;TITR;0,47;wt%;TITR;;;
GROSCAMP-W-245401;;GROSSMAN-CAMP;GROSSMAN, 1991;40,2;-76,8722;0,001;;;CONTINENTAL_RIFT;;;;"AAS; COL; ICPMS; INAA; TITR; Unknown";WHOLE ROCK;IGNEOUS:VOLCANIC:MAFIC;DIABASE;;52,3;wt%;COL;1,12;wt%;COL;13,6;wt%;COL;;;;1,6;wt%;Unknown;;;;8,8;wt%;TITR;;;;;;;0,18;wt%;AAS;8,18;wt%;AAS;11,2;wt%;Unknown;;;;2,02;wt%;Unknown;0,56;wt%;AAS;0,14;wt%;COL;;;;;;;;;;0,13;wt%;TITR;0,54;wt%;TITR;;;;;;;;;;79;ppm;Unknown;47;ppm;Unknown;80;ppm;Unknown;;;;52;ppm;Unknown;0,9;ppm;INAA;;;;;;;;;;;;;;;;;;;;;;;;;;;;;;;;;;;;;;;;;;;;;;;;;;;;;;;;;;;;;;;;;;;;;;;;;;;;;;;;;;;;;;;;;;;;;;;;;;;;;;;;;;;;;;;;;;;;;;;;;;;;;;;10;ppm;INAA;22;ppm;INAA;;;;12;ppm;INAA;3,4;ppm;INAA;1;ppm;INAA;;;;0,6;ppm;INAA;;;;;;;;;;;;;2,2;ppm;INAA;0,3;ppm;INAA;0,03;ppm;TITR;;;;;;;;;;;;;;;;;;;;;;;;;;;;0,9;ppm;INAA;;;;;;;159;ppm;Unknown;;;;;;;;;;;;;47;ppm;Unknown;390;ppm;Unknown;0,9;ppm;INAA;80;ppm;Unknown;;;;;;;2,5;ppm;INAA;;;;0,6;ppm;ICPMS;;;;;;;;;;;;;;;;;;;79;ppm;Unknown;;;;;;;;;;11;ppm;Unknown;14;ppm;Unknown;16;ppm;Unknown;;;;0,8;ppm;Unknown;;;;;;;0,21;ppm;INAA;37;ppm;INAA;;;;176;ppm;Unknown;0,55;ppm;INAA;1,9;ppm;INAA;;;;;;;0,46;ppm;INAA;;;;;;;;;;52;ppm;Unknown;91;ppm;Unknown;;;;;;;;;;;;;;;;;;;;;;;;;0,9;ppm;INAA;0,9;ppm;INAA;;;;0,13;wt%;TITR;0,54;wt%;TITR;0,13;wt%;TITR;0,54;wt%;TITR;;;
GROSCAMP-W-245402;;GROSSMAN-CAMP;GROSSMAN, 1991;40,2;-76,8722;0,001;;;CONTINENTAL_RIFT;;;;"AAS; COL; ICPMS; INAA; TITR; Unknown";WHOLE ROCK;IGNEOUS:VOLCANIC:MAFIC;DIABASE;;52,6;wt%;COL;0,83;wt%;COL;11,1;wt%;COL;;;;1,99;wt%;Unknown;;;;8;wt%;TITR;;;;;;;0,19;wt%;AAS;11,9;wt%;AAS;11;wt%;Unknown;;;;1,44;wt%;Unknown;0,4;wt%;AAS;0,1;wt%;COL;;;;;;;;;;0,26;wt%;TITR;0,73;wt%;TITR;;;;;;;;;;164;ppm;Unknown;55;ppm;Unknown;84;ppm;Unknown;;;;67;ppm;Unknown;1,1;ppm;INAA;;;;;;;;;;;;;;;;;;;;;;;;;;;;;;;;;;;;;;;;;;;;;;;;;;;;;;;;;;;;;;;;;;;;;;;;;;;;;;;;;;;;;;;;;;;;;;;;;;;;;;;;;;;;;;;;;;;;;;;;;;;;;;;7,4;ppm;INAA;16;ppm;INAA;;;;10;ppm;INAA;2,53;ppm;INAA;0,73;ppm;INAA;;;;0,46;ppm;INAA;;;;;;;;;;;;;1,4;ppm;INAA;0,23;ppm;INAA;0,01;ppm;TITR;;;;;;;;;;;;;;;;;;;;;;;;;;;;1,1;ppm;INAA;;;;;;;114;ppm;Unknown;;;;;;;;;;;;;55;ppm;Unknown;840;ppm;Unknown;0,87;ppm;INAA;84;ppm;Unknown;;;;;;;1,7;ppm;INAA;;;;1,1;ppm;ICPMS;;;;;;;;;;;;;;;;;;;164;ppm;Unknown;;;;;;;;;;6,6;ppm;Unknown;22;ppm;Unknown;11;ppm;Unknown;;;;0,9;ppm;Unknown;;;;;;;0,18;ppm;INAA;41;ppm;INAA;;;;128;ppm;Unknown;0,37;ppm;INAA;1,4;ppm;INAA;;;;;;;0,29;ppm;INAA;;;;;;;;;;67;ppm;Unknown;67;ppm;Unknown;;;;;;;;;;;;;;;;;;;;;;;;;1,1;ppm;INAA;1,1;ppm;INAA;;;;0,26;wt%;TITR;0,73;wt%;TITR;0,26;wt%;TITR;0,73;wt%;TITR;;;
GROSCAMP-W-245403;;GROSSMAN-CAMP;GROSSMAN, 1991;40,2;-76,8722;0,001;;;CONTINENTAL_RIFT;;;;"AAS; COL; ICPMS; INAA; TITR; Unknown";WHOLE ROCK;IGNEOUS:VOLCANIC:MAFIC;DIABASE;;52,2;wt%;COL;0,79;wt%;COL;12,4;wt%;COL;;;;1,62;wt%;Unknown;;;;7,9;wt%;TITR;;;;;;;0,17;wt%;AAS;11;wt%;AAS;11,7;wt%;Unknown;;;;1,56;wt%;Unknown;0,44;wt%;AAS;0,09;wt%;COL;;;;;;;;;;0,22;wt%;TITR;0,63;wt%;TITR;;;;;;;;;;147;ppm;Unknown;51;ppm;Unknown;65;ppm;Unknown;;;;57;ppm;Unknown;1,2;ppm;INAA;;;;;;;;;;;;;;;;;;;;;;;;;;;;;;;;;;;;;;;;;;;;;;;;;;;;;;;;;;;;;;;;;;;;;;;;;;;;;;;;;;;;;;;;;;;;;;;;;;;;;;;;;;;;;;;;;;;;;;;;;;;;;;;7,3;ppm;INAA;15;ppm;INAA;;;;6,8;ppm;INAA;2,44;ppm;INAA;0,75;ppm;INAA;;;;0,45;ppm;INAA;;;;;;;;;;;;;1,5;ppm;INAA;0,26;ppm;INAA;0,01;ppm;TITR;;;;;;;;;;;;;;;;;;;;;;;;;;;;1,2;ppm;INAA;;;;;;;115;ppm;Unknown;;;;;;;;;;;;;51;ppm;Unknown;730;ppm;Unknown;0,73;ppm;INAA;65;ppm;Unknown;;;;;;;1,6;ppm;INAA;;;;1,3;ppm;ICPMS;;;;;;;;;;;;;;;;;;;147;ppm;Unknown;;;;;;;;;;6,9;ppm;Unknown;23;ppm;Unknown;22;ppm;Unknown;;;;0,9;ppm;Unknown;;;;;;;0,14;ppm;INAA;38;ppm;INAA;;;;162;ppm;Unknown;0,33;ppm;INAA;1,4;ppm;INAA;;;;;;;0,42;ppm;INAA;;;;;;;;;;57;ppm;Unknown;66;ppm;Unknown;;;;;;;;;;;;;;;;;;;;;;;;;1,2;ppm;INAA;1,2;ppm;INAA;;;;0,22;wt%;TITR;0,63;wt%;TITR;0,22;wt%;TITR;0,63;wt%;TITR;;;
GROSCAMP-W-245404;;GROSSMAN-CAMP;GROSSMAN, 1991;40,2;-76,8722;0,001;;;CONTINENTAL_RIFT;;;;"AAS; COL; ICPMS; INAA; TITR; Unknown";WHOLE ROCK;IGNEOUS:VOLCANIC:MAFIC;DIABASE;;52,4;wt%;COL;0,76;wt%;COL;12,7;wt%;COL;;;;1,74;wt%;Unknown;;;;7,6;wt%;TITR;;;;;;;0,17;wt%;AAS;10,9;wt%;AAS;11,7;wt%;Unknown;;;;1,55;wt%;Unknown;0,34;wt%;AAS;0,09;wt%;COL;;;;;;;;;;0,14;wt%;TITR;0,35;wt%;TITR;;;;;;;;;;154;ppm;Unknown;50;ppm;Unknown;62;ppm;Unknown;;;;66;ppm;Unknown;1,2;ppm;INAA;;;;;;;;;;;;;;;;;;;;;;;;;;;;;;;;;;;;;;;;;;;;;;;;;;;;;;;;;;;;;;;;;;;;;;;;;;;;;;;;;;;;;;;;;;;;;;;;;;;;;;;;;;;;;;;;;;;;;;;;;;;;;;;6,7;ppm;INAA;15;ppm;INAA;;;;;;;2,28;ppm;INAA;0,76;ppm;INAA;;;;0,46;ppm;INAA;;;;;;;;;;;;;1,5;ppm;INAA;0,25;ppm;INAA;;;;;;;;;;;;;;;;;;;;;;;;;;;;;;;1,2;ppm;INAA;;;;;;;110;ppm;Unknown;;;;;;;;;;;;;50;ppm;Unknown;740;ppm;Unknown;0,76;ppm;INAA;62;ppm;Unknown;;;;;;;1,6;ppm;INAA;;;;1,2;ppm;ICPMS;;;;;;;;;;;;;;;;;;;154;ppm;Unknown;;;;;;;;;;7,1;ppm;Unknown;25;ppm;Unknown;8;ppm;Unknown;;;;1;ppm;Unknown;;;;;;;;;;39;ppm;INAA;;;;147;ppm;Unknown;0,31;ppm;INAA;1,2;ppm;INAA;;;;;;;;;;;;;;;;;;;66;ppm;Unknown;63;ppm;Unknown;;;;;;;;;;;;;;;;;;;;;;;;;1,2;ppm;INAA;1,2;ppm;INAA;;;;0,14;wt%;TITR;0,35;wt%;TITR;0,14;wt%;TITR;0,35;wt%;TITR;;;
GROSCAMP-W-245405;;GROSSMAN-CAMP;GROSSMAN, 1991;40,2;-76,8722;0,001;;;CONTINENTAL_RIFT;;;;"AAS; COL; ICPMS; INAA; TITR; Unknown";WHOLE ROCK;IGNEOUS:VOLCANIC:MAFIC;DIABASE;;52,3;wt%;COL;0,72;wt%;COL;13;wt%;COL;;;;1,58;wt%;Unknown;;;;7,5;wt%;TITR;;;;;;;0,16;wt%;AAS;10,7;wt%;AAS;12;wt%;Unknown;;;;1,56;wt%;Unknown;0,35;wt%;AAS;0,08;wt%;COL;;;;;;;;;;0,12;wt%;TITR;0,31;wt%;TITR;;;;;;;;;;142;ppm;Unknown;48;ppm;Unknown;72;ppm;Unknown;;;;54;ppm;Unknown;;;;;;;;;;;;;;;;;;;;;;;;;;;;;;;;;;;;;;;;;;;;;;;;;;;;;;;;;;;;;;;;;;;;;;;;;;;;;;;;;;;;;;;;;;;;;;;;;;;;;;;;;;;;;;;;;;;;;;;;;;;;;;;;;;6,5;ppm;INAA;15;ppm;INAA;;;;7,4;ppm;INAA;2,21;ppm;INAA;0,68;ppm;INAA;;;;0,4;ppm;INAA;;;;;;;;;;;;;1,6;ppm;INAA;0,21;ppm;INAA;0,01;ppm;TITR;;;;;;;;;;;;;;;;;;;;;;;;;;;;;;;;;;;;;107;ppm;Unknown;;;;;;;;;;;;;48;ppm;Unknown;690;ppm;Unknown;0,69;ppm;INAA;72;ppm;Unknown;;;;;;;1,5;ppm;INAA;;;;1;ppm;ICPMS;;;;;;;;;;;;;;;;;;;142;ppm;Unknown;;;;;;;;;;7,1;ppm;Unknown;24;ppm;Unknown;19;ppm;Unknown;;;;0,9;ppm;Unknown;;;;;;;0,16;ppm;INAA;38;ppm;INAA;;;;174;ppm;Unknown;0,27;ppm;INAA;1,3;ppm;INAA;;;;;;;0,3;ppm;INAA;;;;;;;;;;54;ppm;Unknown;68;ppm;Unknown;;;;;;;;;;;;;;;;;;;;;;;;;;;;;;;;;;0,12;wt%;TITR;0,31;wt%;TITR;0,12;wt%;TITR;0,31;wt%;TITR;;;