SAMPLE ID;IGSN;EXPEDITION ID;REFERENCES;LATITUDE;LONGITUDE;LOC PREC;MIN ELEVATION;MAX ELEVATION;TECTONIC SETTING;MIN AGE;AGE;MAX AGE;METHOD;ANALYZED MATERIAL;ROCK TYPE;ROCK NAME;MINERAL;SIO2;SIO2 Units;SIO2 Method;TIO2;TIO2 Units;TIO2 Method;AL2O3;AL2O3 Units;AL2O3 Method;CR2O3;CR2O3 Units;CR2O3 Method;FE2O3;FE2O3 Units;FE2O3 Method;FE2O3T;FE2O3T Units;FE2O3T Method;FEO;FEO Units;FEO Method;FEOT;FEOT Units;FEOT Method;NIO;NIO Units;NIO Method;MNO;MNO Units;MNO Method;MGO;MGO Units;MGO Method;CAO;CAO Units;CAO Method;SRO;SRO Units;SRO Method;NA2O;NA2O Units;NA2O Method;K2O;K2O Units;K2O Method;P2O5;P2O5 Units;P2O5 Method;BAO;BAO Units;BAO Method;LOI;LOI Units;LOI Method;H2O;H2O Units;H2O Method;H2O_M;H2O_M Units;H2O_M Method;H2O_P;H2O_P Units;H2O_P Method;SO3;SO3 Units;SO3 Method;COO;COO Units;COO Method;MN;MN Units;MN Method;NI;NI Units;NI Method;CO;CO Units;CO Method;CU;CU Units;CU Method;CD;CD Units;CD Method;ZN;ZN Units;ZN Method;AS;AS Units;AS Method;AG;AG Units;AG Method;S;S Units;S Method;ZRO2;ZRO2 Units;ZRO2 Method;AL;AL Units;AL Method;CA;CA Units;CA Method;SR87_SR86;SR87_SR86 Units;SR87_SR86 Method;SR87_SR86_INI;SR87_SR86_INI Units;SR87_SR86_INI Method;RB87_SR86;RB87_SR86 Units;RB87_SR86 Method;ND143_ND144;ND143_ND144 Units;ND143_ND144 Method;ND143_ND144_INI;ND143_ND144_INI Units;ND143_ND144_INI Method;SM147_ND144;SM147_ND144 Units;SM147_ND144 Method;E_ND;E_ND Units;E_ND Method;E_ND_INI;E_ND_INI Units;E_ND_INI Method;PB204_PB206;PB204_PB206 Units;PB204_PB206 Method;PB206_PB204;PB206_PB204 Units;PB206_PB204 Method;PB206_PB204_INI;PB206_PB204_INI Units;PB206_PB204_INI Method;PB207_PB204;PB207_PB204 Units;PB207_PB204 Method;PB207_PB204_INI;PB207_PB204_INI Units;PB207_PB204_INI Method;PB207_PB206;PB207_PB206 Units;PB207_PB206 Method;PB208_PB204;PB208_PB204 Units;PB208_PB204 Method;PB208_PB204_INI;PB208_PB204_INI Units;PB208_PB204_INI Method;PB208_PB206;PB208_PB206 Units;PB208_PB206 Method;HF176_HF177;HF176_HF177 Units;HF176_HF177 Method;RE187_OS188;RE187_OS188 Units;RE187_OS188 Method;OS187_OS188;OS187_OS188 Units;OS187_OS188 Method;OS187_OS188_INI;OS187_OS188_INI Units;OS187_OS188_INI Method;G_OS;G_OS Units;G_OS Method;G_OS_INI;G_OS_INI Units;G_OS_INI Method;ND143_ND144_INI;ND143_ND144_INI Units;ND143_ND144_INI Method;PB206_PB204_INI;PB206_PB204_INI Units;PB206_PB204_INI Method;PB207_PB204_INI;PB207_PB204_INI Units;PB207_PB204_INI Method;PB208_PB204_INI;PB208_PB204_INI Units;PB208_PB204_INI Method;SR87_SR86_INI;SR87_SR86_INI Units;SR87_SR86_INI Method;HE;HE Units;HE Method;HE3;HE3 Units;HE3 Method;HE3_HE4_R_RA;HE3_HE4_R_RA Units;HE3_HE4_R_RA Method;AR36;AR36 Units;AR36 Method;AR40;AR40 Units;AR40 Method;AR40_AR36;AR40_AR36 Units;AR40_AR36 Method;NE20;NE20 Units;NE20 Method;NE20_NE22;NE20_NE22 Units;NE20_NE22 Method;NE21_NE22;NE21_NE22 Units;NE21_NE22 Method;LA;LA Units;LA Method;CE;CE Units;CE Method;PR;PR Units;PR Method;ND;ND Units;ND Method;SM;SM Units;SM Method;EU;EU Units;EU Method;GD;GD Units;GD Method;TB;TB Units;TB Method;DY;DY Units;DY Method;HO;HO Units;HO Method;ER;ER Units;ER Method;TM;TM Units;TM Method;YB;YB Units;YB Method;LU;LU Units;LU Method;CO2;CO2 Units;CO2 Method;F;F Units;F Method;CL;CL Units;CL Method;U238_PB204;U238_PB204 Units;U238_PB204 Method;TH230_TH232;TH230_TH232 Units;TH230_TH232 Method;RA226_ACTIVITY;RA226_ACTIVITY Units;RA226_ACTIVITY Method;PB210_RA226;PB210_RA226 Units;PB210_RA226 Method;PB210_ACTIVITY;PB210_ACTIVITY Units;PB210_ACTIVITY Method;AG;AG Units;AG Method;AL;AL Units;AL Method;AS;AS Units;AS Method;AU;AU Units;AU Method;B;B Units;B Method;BA;BA Units;BA Method;BE;BE Units;BE Method;BI;BI Units;BI Method;CA;CA Units;CA Method;CD;CD Units;CD Method;CO;CO Units;CO Method;CR;CR Units;CR Method;CS;CS Units;CS Method;CU;CU Units;CU Method;GA;GA Units;GA Method;GER;GER Units;GER Method;HF;HF Units;HF Method;INDIUM;INDIUM Units;INDIUM Method;IR;IR Units;IR Method;K;K Units;K Method;LI;LI Units;LI Method;MN;MN Units;MN Method;MO;MO Units;MO Method;NA;NA Units;NA Method;NB;NB Units;NB Method;NI;NI Units;NI Method;OS;OS Units;OS Method;P;P Units;P Method;PB;PB Units;PB Method;PD;PD Units;PD Method;PT;PT Units;PT Method;RB;RB Units;RB Method;RE;RE Units;RE Method;RH;RH Units;RH Method;RU;RU Units;RU Method;S;S Units;S Method;SB;SB Units;SB Method;SC;SC Units;SC Method;SN;SN Units;SN Method;SR;SR Units;SR Method;TA;TA Units;TA Method;TH;TH Units;TH Method;TI;TI Units;TI Method;TL;TL Units;TL Method;U;U Units;U Method;V;V Units;V Method;W;W Units;W Method;Y;Y Units;Y Method;ZN;ZN Units;ZN Method;ZR;ZR Units;ZR Method;DELTA_O18;DELTA_O18 Units;DELTA_O18 Method;DELTA_C13;DELTA_C13 Units;DELTA_C13 Method;DELTA_MO98;DELTA_MO98 Units;DELTA_MO98 Method;DELTA_ZN66;DELTA_ZN66 Units;DELTA_ZN66 Method;DELTA_ZN68;DELTA_ZN68 Units;DELTA_ZN68 Method;OS188;OS188 Units;OS188 Method;FE3P_FET;FE3P_FET Units;FE3P_FET Method;TI;TI Units;TI Method;AS;AS Units;AS Method;AS;AS Units;AS Method;GER;GER Units;GER Method;H2O_M;H2O_M Units;H2O_M Method;H2O_P;H2O_P Units;H2O_P Method;H2O_M;H2O_M Units;H2O_M Method;H2O_P;H2O_P Units;H2O_P Method;INDIUM;INDIUM Units;INDIUM Method
GROSCAMP-W-241814;;GROSSMAN-CAMP;GROSSMAN, 1991;36,1156;-78,7722;0,001;;;CONTINENTAL_RIFT;;;;"AAS; COL; ES; ICP; ICPMS; INAA; TITR; Unknown";WHOLE ROCK;IGNEOUS:VOLCANIC:MAFIC;DIABASE;;49,8;wt%;COL;0,53;wt%;COL;16,6;wt%;COL;;;;3,19;wt%;Unknown;;;;6,93;wt%;TITR;;;;;;;0,17;wt%;AAS;8,99;wt%;AAS;11,9;wt%;Unknown;;;;2,17;wt%;Unknown;0,33;wt%;AAS;0,09;wt%;COL;;;;;;;;;;0,3;wt%;TITR;0,4;wt%;TITR;;;;;;;;;;178;ppm;Unknown;49;ppm;Unknown;90;ppm;Unknown;;;;100;ppm;Unknown;;;;;;;0,05;ppm;INAA;;;;;;;;;;;;;;;;;;;;;;;;;;;;;;;;;;;;;;;;;;;;;;;;;;;;;;;;;;;;;;;;;;;;;;;;;;;;;;;;;;;;;;;;;;;;;;;;;;;;;;;;;;;;;;;;;;;;;;;;;5,7;ppm;INAA;13;ppm;INAA;;;;7,3;ppm;INAA;2,2;ppm;INAA;0,69;ppm;INAA;;;;0,49;ppm;INAA;;;;;;;;;;;;;2,8;ppm;INAA;0,38;ppm;INAA;0,05;ppm;TITR;0,01;ppm;INAA;0;ppm;INAA;;;;;;;;;;;;;;;;;;;;;;;;;;;;8,2;ppm;ES;110;ppm;Unknown;;;;;;;;;;;;;49;ppm;Unknown;340;ppm;Unknown;0,8;ppm;INAA;90;ppm;Unknown;;;;;;;1,5;ppm;INAA;;;;;;;;;;;;;;;;;;;;;;2,5;ppm;ICP;178;ppm;Unknown;;;;;;;;;;10;ppm;Unknown;10;ppm;Unknown;6;ppm;Unknown;;;;;;;2;ppm;ICPMS;0,05;ppm;INAA;;;;43;ppm;INAA;;;;142;ppm;Unknown;0,2;ppm;INAA;0,73;ppm;INAA;;;;;;;;;;;;;;;;24;ppm;Unknown;100;ppm;Unknown;68;ppm;Unknown;;;;;;;;;;;;;;;;;;;;;;;;;;;;;;;;;;0,3;wt%;TITR;0,4;wt%;TITR;0,3;wt%;TITR;0,4;wt%;TITR;;;
GROSCAMP-W-241815;;GROSSMAN-CAMP;GROSSMAN, 1991;36,1156;-78,7722;0,001;;;CONTINENTAL_RIFT;;;;"AAS; COL; ES; ICP; ICPMS; INAA; TITR; Unknown";WHOLE ROCK;IGNEOUS:VOLCANIC:MAFIC;DIABASE;;49,9;wt%;COL;0,57;wt%;COL;16,4;wt%;COL;;;;2,75;wt%;Unknown;;;;7,16;wt%;TITR;;;;;;;0,17;wt%;AAS;9,25;wt%;AAS;11,6;wt%;Unknown;;;;2,14;wt%;Unknown;0,35;wt%;AAS;0,1;wt%;COL;;;;;;;;;;0,25;wt%;TITR;0,49;wt%;TITR;;;;;;;;;;188;ppm;Unknown;51;ppm;Unknown;93;ppm;Unknown;;;;100;ppm;Unknown;;;;;;;0,05;ppm;INAA;;;;;;;;;;;;;;;;;;;;;;;;;;;;;;;;;;;;;;;;;;;;;;;;;;;;;;;;;;;;;;;;;;;;;;;;;;;;;;;;;;;;;;;;;;;;;;;;;;;;;;;;;;;;;;;;;;;;;;;;;5,2;ppm;INAA;12;ppm;INAA;;;;6,9;ppm;INAA;2;ppm;INAA;0,66;ppm;INAA;;;;0,51;ppm;INAA;;;;;;;;;;;;;2,5;ppm;INAA;0,37;ppm;INAA;0,06;ppm;TITR;0,01;ppm;INAA;;;;;;;;;;;;;;;;;;;;;;;;;;;;;;;5,2;ppm;ES;108;ppm;Unknown;;;;;;;;;;;;;51;ppm;Unknown;400;ppm;Unknown;0,45;ppm;INAA;93;ppm;Unknown;;;;;;;1,3;ppm;INAA;;;;;;;;;;;;;;;;;;;;;;2,5;ppm;ICP;188;ppm;Unknown;;;;;;;;;;11;ppm;Unknown;13;ppm;Unknown;11;ppm;Unknown;;;;;;;2;ppm;ICPMS;0,05;ppm;INAA;;;;40;ppm;INAA;;;;151;ppm;Unknown;;;;0,58;ppm;INAA;;;;;;;;;;;;;;;;27;ppm;Unknown;100;ppm;Unknown;63;ppm;Unknown;;;;;;;;;;;;;;;;;;;;;;;;;;;;;;;;;;0,25;wt%;TITR;0,49;wt%;TITR;0,25;wt%;TITR;0,49;wt%;TITR;;;
GROSCAMP-W-241816;;GROSSMAN-CAMP;GROSSMAN, 1991;36,1156;-78,7722;0,001;;;CONTINENTAL_RIFT;;;;"AAS; COL; ES; ICP; ICPMS; INAA; TITR; Unknown";WHOLE ROCK;IGNEOUS:VOLCANIC:MAFIC;DIABASE;;50,5;wt%;COL;0,58;wt%;COL;17,4;wt%;COL;;;;2,71;wt%;Unknown;;;;6,05;wt%;TITR;;;;;;;0,16;wt%;AAS;7,01;wt%;AAS;12,6;wt%;Unknown;;;;2,2;wt%;Unknown;0,37;wt%;AAS;0,1;wt%;COL;;;;;;;;;;0,34;wt%;TITR;0,55;wt%;TITR;;;;;;;;;;106;ppm;Unknown;41;ppm;Unknown;92;ppm;Unknown;;;;96;ppm;Unknown;;;;;;;0,05;ppm;INAA;;;;;;;;;;;;;;;;;;;;;;;;;;;;;;;;;;;;;;;;;;;;;;;;;;;;;;;;;;;;;;;;;;;;;;;;;;;;;;;;;;;;;;;;;;;;;;;;;;;;;;;;;;;;;;;;;;;;;;;;;5,4;ppm;INAA;12;ppm;INAA;;;;7,6;ppm;INAA;2,07;ppm;INAA;0,65;ppm;INAA;;;;0,47;ppm;INAA;;;;;;;;;;;;;2,6;ppm;INAA;0,38;ppm;INAA;0,07;ppm;TITR;0,01;ppm;INAA;;;;;;;;;;;;;;;;;;;;;;;;;;;;;;;6,4;ppm;ES;109;ppm;Unknown;;;;;;;;;;;;;41;ppm;Unknown;340;ppm;Unknown;0,34;ppm;INAA;92;ppm;Unknown;;;;;;;1,4;ppm;INAA;;;;;;;;;;;;;;;;;;;;;;2,3;ppm;ICP;106;ppm;Unknown;;;;;;;;;;10;ppm;Unknown;9,9;ppm;Unknown;11;ppm;Unknown;;;;;;;2,2;ppm;ICPMS;0,05;ppm;INAA;;;;41;ppm;INAA;;;;184;ppm;Unknown;0,23;ppm;INAA;0,84;ppm;INAA;;;;;;;;;;;;;;;;29;ppm;Unknown;96;ppm;Unknown;72;ppm;Unknown;;;;;;;;;;;;;;;;;;;;;;;;;;;;;;;;;;0,34;wt%;TITR;0,55;wt%;TITR;0,34;wt%;TITR;0,55;wt%;TITR;;;
GROSCAMP-W-241817;;GROSSMAN-CAMP;GROSSMAN, 1991;36,1156;-78,7722;0,001;;;CONTINENTAL_RIFT;;;;"AAS; COL; ES; ICP; ICPMS; INAA; TITR; Unknown";WHOLE ROCK;IGNEOUS:VOLCANIC:MAFIC;DIABASE;;49,9;wt%;COL;0,56;wt%;COL;16,2;wt%;COL;;;;2,49;wt%;Unknown;;;;7,36;wt%;TITR;;;;;;;0,18;wt%;AAS;9,32;wt%;AAS;11,5;wt%;Unknown;;;;2,14;wt%;Unknown;0,34;wt%;AAS;0,1;wt%;COL;;;;;;;;;;0,37;wt%;TITR;0,42;wt%;TITR;;;;;;;;;;408;ppm;Unknown;110;ppm;Unknown;206;ppm;Unknown;;;;93;ppm;Unknown;;;;;;;0,05;ppm;INAA;;;;;;;;;;;;;;;;;;;;;;;;;;;;;;;;;;;;;;;;;;;;;;;;;;;;;;;;;;;;;;;;;;;;;;;;;;;;;;;;;;;;;;;;;;;;;;;;;;;;;;;;;;;;;;;;;;;;;;;;;5,1;ppm;INAA;12;ppm;INAA;;;;7,1;ppm;INAA;1,96;ppm;INAA;0,64;ppm;INAA;;;;0,39;ppm;INAA;;;;;;;;;;;;;2,4;ppm;INAA;0,35;ppm;INAA;0,05;ppm;TITR;0,01;ppm;INAA;;;;;;;;;;;;;;;;;;;;;;;;;;;;;;;7;ppm;ES;106;ppm;Unknown;;;;;;;;;;;;;110;ppm;Unknown;360;ppm;Unknown;0,45;ppm;INAA;206;ppm;Unknown;;;;;;;1,4;ppm;INAA;;;;;;;;;;;;;;;;;;;;;;2,2;ppm;ICP;408;ppm;Unknown;;;;;;;;;;11;ppm;Unknown;11;ppm;Unknown;;;;;;;;;;2;ppm;ICPMS;0,05;ppm;INAA;;;;39;ppm;INAA;;;;145;ppm;Unknown;0,2;ppm;INAA;0,69;ppm;INAA;;;;;;;;;;;;;;;;19;ppm;Unknown;93;ppm;Unknown;56;ppm;Unknown;;;;;;;;;;;;;;;;;;;;;;;;;;;;;;;;;;0,37;wt%;TITR;0,42;wt%;TITR;0,37;wt%;TITR;0,42;wt%;TITR;;;
GROSCAMP-W-241818;;GROSSMAN-CAMP;GROSSMAN, 1991;36,1156;-78,7722;0,001;;;CONTINENTAL_RIFT;;;;"AAS; COL; ES; ICP; ICPMS; INAA; TITR; Unknown";WHOLE ROCK;IGNEOUS:VOLCANIC:MAFIC;DIABASE;;49,8;wt%;COL;0,56;wt%;COL;16;wt%;COL;;;;2,52;wt%;Unknown;;;;7,27;wt%;TITR;;;;;;;0,17;wt%;AAS;9,47;wt%;AAS;11,5;wt%;Unknown;;;;2,05;wt%;Unknown;0,33;wt%;AAS;0,1;wt%;COL;;;;;;;;;;0,23;wt%;TITR;0,57;wt%;TITR;;;;;;;;;;201;ppm;Unknown;52;ppm;Unknown;98;ppm;Unknown;;;;93;ppm;Unknown;;;;;;;0,05;ppm;INAA;;;;;;;;;;;;;;;;;;;;;;;;;;;;;;;;;;;;;;;;;;;;;;;;;;;;;;;;;;;;;;;;;;;;;;;;;;;;;;;;;;;;;;;;;;;;;;;;;;;;;;;;;;;;;;;;;;;;;;;;;5,2;ppm;INAA;12;ppm;INAA;;;;6,4;ppm;INAA;2;ppm;INAA;0,64;ppm;INAA;;;;0,46;ppm;INAA;;;;;;;;;;;;;2,5;ppm;INAA;0,36;ppm;INAA;0,04;ppm;TITR;0,01;ppm;INAA;;;;;;;;;;;;;;;;;;;;;;;;;;;;;;;13,7;ppm;ES;113;ppm;Unknown;;;;;;;;;;;;;52;ppm;Unknown;360;ppm;Unknown;;;;98;ppm;Unknown;;;;;;;1,3;ppm;INAA;;;;;;;;;;;;;;;;;;;;;;2;ppm;ICP;201;ppm;Unknown;;;;;;;;;;10;ppm;Unknown;12;ppm;Unknown;3;ppm;Unknown;;;;;;;2;ppm;ICPMS;0,05;ppm;INAA;;;;40;ppm;INAA;;;;155;ppm;Unknown;0,19;ppm;INAA;0,69;ppm;INAA;;;;;;;;;;;;;;;;21;ppm;Unknown;93;ppm;Unknown;57;ppm;Unknown;;;;;;;;;;;;;;;;;;;;;;;;;;;;;;;;;;0,23;wt%;TITR;0,57;wt%;TITR;0,23;wt%;TITR;0,57;wt%;TITR;;;
GROSCAMP-W-241819;;GROSSMAN-CAMP;GROSSMAN, 1991;36,1156;-78,7722;0,001;;;CONTINENTAL_RIFT;;;;"AAS; COL; ES; ICP; ICPMS; INAA; TITR; Unknown";WHOLE ROCK;IGNEOUS:VOLCANIC:MAFIC;DIABASE;;49,8;wt%;COL;0,55;wt%;COL;15,8;wt%;COL;;;;2,65;wt%;Unknown;;;;6,89;wt%;TITR;;;;;;;0,17;wt%;AAS;9,37;wt%;AAS;11,4;wt%;Unknown;;;;1,95;wt%;Unknown;0,36;wt%;AAS;0,09;wt%;COL;;;;;;;;;;0,42;wt%;TITR;0,79;wt%;TITR;;;;;;;;;;206;ppm;Unknown;52;ppm;Unknown;95;ppm;Unknown;;;;93;ppm;Unknown;;;;;;;0,03;ppm;INAA;;;;;;;;;;;;;;;;;;;;;;;;;;;;;;;;;;;;;;;;;;;;;;;;;;;;;;;;;;;;;;;;;;;;;;;;;;;;;;;;;;;;;;;;;;;;;;;;;;;;;;;;;;;;;;;;;;;;;;;;;5,4;ppm;INAA;13;ppm;INAA;;;;7;ppm;INAA;2;ppm;INAA;0,64;ppm;INAA;;;;0,42;ppm;INAA;;;;;;;;;;;;;2,5;ppm;INAA;0,35;ppm;INAA;0,08;ppm;TITR;0,01;ppm;INAA;;;;;;;;;;;;;;;;;;;;;;;;;;;;;;;4,8;ppm;ES;122;ppm;Unknown;;;;;;;;;;;;;52;ppm;Unknown;350;ppm;Unknown;0,91;ppm;INAA;95;ppm;Unknown;;;;;;;1,3;ppm;INAA;;;;;;;;;;;;;;;;;;;;;;2,2;ppm;ICP;206;ppm;Unknown;;;;;;;;;;11;ppm;Unknown;11;ppm;Unknown;9;ppm;Unknown;;;;;;;2;ppm;ICPMS;0,03;ppm;INAA;;;;40;ppm;INAA;;;;172;ppm;Unknown;0,14;ppm;INAA;0,86;ppm;INAA;;;;;;;;;;;;;;;;19;ppm;Unknown;93;ppm;Unknown;66;ppm;Unknown;;;;;;;;;;;;;;;;;;;;;;;;;;;;;;;;;;0,42;wt%;TITR;0,79;wt%;TITR;0,42;wt%;TITR;0,79;wt%;TITR;;;
GROSCAMP-W-243064;;GROSSMAN-CAMP;GROSSMAN, 1991;40,23;-75,99;0,001;;;CONTINENTAL_RIFT;;;;"AAS; ICP; INAA; Unknown";WHOLE ROCK;IGNEOUS:VOLCANIC:MAFIC;DIABASE;;;;;;;;;;;;;;;;;11,98;wt%;Unknown;;;;;;;;;;;;;;;;10,35;wt%;Unknown;;;;2,24;wt%;Unknown;;;;;;;;;;;;;;;;;;;;;;;;;;;;;;;83;ppm;Unknown;47;ppm;Unknown;107;ppm;Unknown;;;;72;ppm;Unknown;1,4;ppm;INAA;0,064;ppm;AAS;;;;;;;;;;;;;;;;;;;;;;;;;;;;;;;;;;;;;;;;;;;;;;;;;;;;;;;;;;;;;;;;;;;;;;;;;;;;;;;;;;;;;;;;;;;;;;;;;;;;;;;;;;;;;;;;;;;;;;;;;;;;11;ppm;INAA;24,3;ppm;INAA;;;;13;ppm;INAA;3,6;ppm;INAA;1,1;ppm;INAA;;;;0,69;ppm;INAA;;;;;;;;;;;;;2,2;ppm;INAA;0,31;ppm;INAA;;;;;;;;;;;;;;;;;;;;;;;;;0,064;ppm;AAS;;;;1,4;ppm;INAA;7,9;ppm;INAA;;;;154;ppm;Unknown;;;;;;;;;;;;;47;ppm;Unknown;260;ppm;Unknown;0,97;ppm;INAA;107;ppm;Unknown;;;;;;;2,8;ppm;INAA;;;;;;;;;;;;;;;;;;;;;;7;ppm;ICP;83;ppm;Unknown;;;;;;;;;;;;;;;;27;ppm;Unknown;;;;;;;;;;;;;0,14;ppm;INAA;37;ppm;INAA;;;;197;ppm;Unknown;0,56;ppm;INAA;2,3;ppm;INAA;;;;;;;0,52;ppm;INAA;;;;;;;19;ppm;Unknown;72;ppm;Unknown;90;ppm;Unknown;;;;;;;;;;;;;;;;;;;;;;;;;1,4;ppm;INAA;1,4;ppm;INAA;;;;;;;;;;;;;;;;;;
GROSCAMP-W-241820;;GROSSMAN-CAMP;GROSSMAN, 1991;36,1156;-78,7722;0,001;;;CONTINENTAL_RIFT;;;;"AAS; COL; ES; ICP; ICPMS; INAA; TITR; Unknown";WHOLE ROCK;IGNEOUS:VOLCANIC:MAFIC;DIABASE;;49,5;wt%;COL;0,57;wt%;COL;15,9;wt%;COL;;;;2,64;wt%;Unknown;;;;7,27;wt%;TITR;;;;;;;0,17;wt%;AAS;9,44;wt%;AAS;11,4;wt%;Unknown;;;;2,05;wt%;Unknown;0,33;wt%;AAS;0,1;wt%;COL;;;;;;;;;;0,19;wt%;TITR;0,87;wt%;TITR;;;;;;;;;;205;ppm;Unknown;53;ppm;Unknown;94;ppm;Unknown;;;;78;ppm;Unknown;;;;;;;0,05;ppm;INAA;;;;;;;;;;;;;;;;;;;;;;;;;;;;;;;;;;;;;;;;;;;;;;;;;;;;;;;;;;;;;;;;;;;;;;;;;;;;;;;;;;;;;;;;;;;;;;;;;;;;;;;;;;;;;;;;;;;;;;;;;5,3;ppm;INAA;12;ppm;INAA;;;;6,5;ppm;INAA;2,06;ppm;INAA;0,65;ppm;INAA;;;;0,46;ppm;INAA;;;;;;;;;;;;;2,61;ppm;INAA;0,35;ppm;INAA;0,04;ppm;TITR;0,01;ppm;INAA;;;;;;;;;;;;;;;;;;;;;;;;;;;;4;ppm;INAA;6,4;ppm;ES;115;ppm;Unknown;;;;;;;;;;;;;53;ppm;Unknown;360;ppm;Unknown;0,84;ppm;INAA;94;ppm;Unknown;;;;;;;1,5;ppm;INAA;;;;;;;;;;;;;;;;;;;;;;2,2;ppm;ICP;205;ppm;Unknown;;;;;;;;;;11;ppm;Unknown;8,5;ppm;Unknown;11;ppm;Unknown;;;;;;;1;ppm;ICPMS;0,05;ppm;INAA;;;;40;ppm;INAA;;;;146;ppm;Unknown;0,21;ppm;INAA;0,63;ppm;INAA;;;;;;;;;;;;;;;;29;ppm;Unknown;78;ppm;Unknown;69;ppm;Unknown;;;;;;;;;;;;;;;;;;;;;;;;;;;;;;;;;;0,19;wt%;TITR;0,87;wt%;TITR;0,19;wt%;TITR;0,87;wt%;TITR;;;
GROSCAMP-W-241821;;GROSSMAN-CAMP;GROSSMAN, 1991;36,1156;-78,7722;0,001;;;CONTINENTAL_RIFT;;;;"AAS; COL; ES; ICP; ICPMS; INAA; TITR; Unknown";WHOLE ROCK;IGNEOUS:VOLCANIC:MAFIC;DIABASE;;49,7;wt%;COL;0,56;wt%;COL;16;wt%;COL;;;;2,97;wt%;Unknown;;;;7,27;wt%;TITR;;;;;;;0,17;wt%;AAS;9,17;wt%;AAS;11,4;wt%;Unknown;;;;2,13;wt%;Unknown;0,33;wt%;AAS;0,1;wt%;COL;;;;;;;;;;0,29;wt%;TITR;0,9;wt%;TITR;;;;;;;;;;197;ppm;Unknown;52;ppm;Unknown;97;ppm;Unknown;;;;78;ppm;Unknown;;;;;;;0,05;ppm;INAA;;;;;;;;;;;;;;;;;;;;;;;;;;;;;;;;;;;;;;;;;;;;;;;;;;;;;;;;;;;;;;;;;;;;;;;;;;;;;;;;;;;;;;;;;;;;;;;;;;;;;;;;;;;;;;;;;;;;;;;;;5,5;ppm;INAA;12;ppm;INAA;;;;7;ppm;INAA;2,08;ppm;INAA;0,65;ppm;INAA;;;;0,55;ppm;INAA;;;;;;;;;;;;;2,62;ppm;INAA;0,38;ppm;INAA;0,03;ppm;TITR;0,01;ppm;INAA;;;;;;;;;;;;;;;;;;;;;;;;;;;;4,3;ppm;INAA;12,8;ppm;ES;109;ppm;Unknown;;;;;;;;;;;;;52;ppm;Unknown;360;ppm;Unknown;1;ppm;INAA;97;ppm;Unknown;;;;;;;1,6;ppm;INAA;;;;;;;;;;;;;;;;;;;;;;2,5;ppm;ICP;197;ppm;Unknown;;;;;;;;;;11;ppm;Unknown;11;ppm;Unknown;15;ppm;Unknown;;;;;;;2;ppm;ICPMS;0,05;ppm;INAA;;;;42;ppm;INAA;;;;151;ppm;Unknown;0,18;ppm;INAA;0,62;ppm;INAA;;;;;;;;;;;;;;;;28;ppm;Unknown;78;ppm;Unknown;69;ppm;Unknown;;;;;;;;;;;;;;;;;;;;;;;;;;;;;;;;;;0,29;wt%;TITR;0,9;wt%;TITR;0,29;wt%;TITR;0,9;wt%;TITR;;;
GROSCAMP-W-241822;;GROSSMAN-CAMP;GROSSMAN, 1991;36,1156;-78,7722;0,001;;;CONTINENTAL_RIFT;;;;"AAS; COL; ES; ICP; ICPMS; INAA; TITR; Unknown";WHOLE ROCK;IGNEOUS:VOLCANIC:MAFIC;DIABASE;;50,1;wt%;COL;0,59;wt%;COL;16,1;wt%;COL;;;;2,69;wt%;Unknown;;;;7,11;wt%;TITR;;;;;;;0,18;wt%;AAS;8,48;wt%;AAS;11,6;wt%;Unknown;;;;2,22;wt%;Unknown;0,35;wt%;AAS;0,1;wt%;COL;;;;;;;;;;0,32;wt%;TITR;0,82;wt%;TITR;;;;;;;;;;159;ppm;Unknown;49;ppm;Unknown;100;ppm;Unknown;;;;77;ppm;Unknown;;;;;;;0,05;ppm;INAA;;;;;;;;;;;;;;;;;;;;;;;;;;;;;;;;;;;;;;;;;;;;;;;;;;;;;;;;;;;;;;;;;;;;;;;;;;;;;;;;;;;;;;;;;;;;;;;;;;;;;;;;;;;;;;;;;;;;;;;;;5,2;ppm;INAA;12;ppm;INAA;;;;6,7;ppm;INAA;1,94;ppm;INAA;0,63;ppm;INAA;;;;0,46;ppm;INAA;;;;;;;;;;;;;2,5;ppm;INAA;0,36;ppm;INAA;0,03;ppm;TITR;0,01;ppm;INAA;0;ppm;INAA;;;;;;;;;;;;;;;;;;;;;;;;;;;;2,6;ppm;ES;108;ppm;Unknown;;;;;;;;;;;;;49;ppm;Unknown;460;ppm;Unknown;0,35;ppm;INAA;100;ppm;Unknown;;;;;;;1,4;ppm;INAA;;;;;;;;;;;;;;;;;;;;;;2,5;ppm;ICP;159;ppm;Unknown;;;;;;;;;;11;ppm;Unknown;11;ppm;Unknown;6;ppm;Unknown;;;;;;;2,4;ppm;ICPMS;0,05;ppm;INAA;;;;42;ppm;INAA;;;;153;ppm;Unknown;0,25;ppm;INAA;0,61;ppm;INAA;;;;;;;;;;;;;;;;26;ppm;Unknown;77;ppm;Unknown;65;ppm;Unknown;;;;;;;;;;;;;;;;;;;;;;;;;;;;;;;;;;0,32;wt%;TITR;0,82;wt%;TITR;0,32;wt%;TITR;0,82;wt%;TITR;;;
GROSCAMP-W-241823;;GROSSMAN-CAMP;GROSSMAN, 1991;36,1156;-78,7722;0,001;;;CONTINENTAL_RIFT;;;;"AAS; COL; ES; ICP; ICPMS; INAA; TITR; Unknown";WHOLE ROCK;IGNEOUS:VOLCANIC:MAFIC;DIABASE;;50,2;wt%;COL;0,59;wt%;COL;15,9;wt%;COL;;;;3,27;wt%;Unknown;;;;6,82;wt%;TITR;;;;;;;0,17;wt%;AAS;8,47;wt%;AAS;11,3;wt%;Unknown;;;;2,08;wt%;Unknown;0,41;wt%;AAS;0,1;wt%;COL;;;;;;;;;;0,4;wt%;TITR;1,14;wt%;TITR;;;;;;;;;;169;ppm;Unknown;50;ppm;Unknown;100;ppm;Unknown;;;;82;ppm;Unknown;;;;;;;0,03;ppm;INAA;;;;;;;;;;;;;;;;;;;;;;;;;;;;;;;;;;;;;;;;;;;;;;;;;;;;;;;;;;;;;;;;;;;;;;;;;;;;;;;;;;;;;;;;;;;;;;;;;;;;;;;;;;;;;;;;;;;;;;;;;5,7;ppm;INAA;13;ppm;INAA;;;;8;ppm;INAA;2,15;ppm;INAA;0,7;ppm;INAA;;;;0,48;ppm;INAA;;;;;;;;;;;;;2,6;ppm;INAA;0,39;ppm;INAA;0,06;ppm;TITR;0,02;ppm;INAA;;;;;;;;;;;;;;;;;;;;;;;;;;;;6,5;ppm;INAA;6,4;ppm;ES;136;ppm;Unknown;;;;;;;;;;;;;50;ppm;Unknown;350;ppm;Unknown;0,88;ppm;INAA;100;ppm;Unknown;;;;;;;1,6;ppm;INAA;;;;;;;;;;;;;;;;;;;;;;2,5;ppm;ICP;169;ppm;Unknown;;;;;;;;;;12;ppm;Unknown;13;ppm;Unknown;13;ppm;Unknown;;;;;;;1;ppm;ICPMS;0,03;ppm;INAA;;;;43;ppm;INAA;;;;169;ppm;Unknown;0,17;ppm;INAA;0,83;ppm;INAA;;;;;;;0,46;ppm;INAA;;;;;;;20;ppm;Unknown;82;ppm;Unknown;65;ppm;Unknown;;;;;;;;;;;;;;;;;;;;;;;;;;;;;;;;;;0,4;wt%;TITR;1,14;wt%;TITR;0,4;wt%;TITR;1,14;wt%;TITR;;;
GROSCAMP-W-241824;;GROSSMAN-CAMP;GROSSMAN, 1991;36,1156;-78,7722;0,001;;;CONTINENTAL_RIFT;;;;"AAS; COL; ES; ICP; INAA; TITR; Unknown";WHOLE ROCK;IGNEOUS:VOLCANIC:MAFIC;DIABASE;;50,5;wt%;COL;0,62;wt%;COL;16,2;wt%;COL;;;;3,81;wt%;Unknown;;;;6,66;wt%;TITR;;;;;;;0,18;wt%;AAS;7,76;wt%;AAS;11,8;wt%;Unknown;;;;2,25;wt%;Unknown;0,34;wt%;AAS;0,11;wt%;COL;;;;;;;;;;0,35;wt%;TITR;0,83;wt%;TITR;;;;;;;;;;140;ppm;Unknown;47;ppm;Unknown;104;ppm;Unknown;;;;87;ppm;Unknown;;;;;;;0,05;ppm;INAA;;;;;;;;;;;;;;;;;;;;;;;;;;;;;;;;;;;;;;;;;;;;;;;;;;;;;;;;;;;;;;;;;;;;;;;;;;;;;;;;;;;;;;;;;;;;;;;;;;;;;;;;;;;;;;;;;;;;;;;;;6;ppm;INAA;13,3;ppm;INAA;;;;7,4;ppm;INAA;2,29;ppm;INAA;0,74;ppm;INAA;;;;0,6;ppm;INAA;;;;;;;;;;;;;2,83;ppm;INAA;0,41;ppm;INAA;0,04;ppm;TITR;0,02;ppm;INAA;0;ppm;INAA;;;;;;;;;;;;;;;;;;;;;;;;;;;;6;ppm;ES;140;ppm;Unknown;;;;;;;;;;;;;47;ppm;Unknown;350;ppm;Unknown;0,65;ppm;INAA;104;ppm;Unknown;;;;;;;1,7;ppm;INAA;;;;;;;;;;;;;;;;;;;;;;2,8;ppm;ICP;140;ppm;Unknown;;;;;;;;;;11;ppm;Unknown;11;ppm;Unknown;8;ppm;Unknown;;;;;;;;;;0,05;ppm;INAA;;;;46;ppm;INAA;;;;136;ppm;Unknown;0,2;ppm;INAA;0,78;ppm;INAA;;;;;;;;;;;;;;;;27;ppm;Unknown;87;ppm;Unknown;68;ppm;Unknown;;;;;;;;;;;;;;;;;;;;;;;;;;;;;;;;;;0,35;wt%;TITR;0,83;wt%;TITR;0,35;wt%;TITR;0,83;wt%;TITR;;;