SAMPLE ID;IGSN;EXPEDITION ID;REFERENCES;LATITUDE;LONGITUDE;LOC PREC;MIN ELEVATION;MAX ELEVATION;TECTONIC SETTING;MIN AGE;AGE;MAX AGE;METHOD;ANALYZED MATERIAL;ROCK TYPE;ROCK NAME;MINERAL;SIO2;SIO2 Units;SIO2 Method;TIO2;TIO2 Units;TIO2 Method;AL2O3;AL2O3 Units;AL2O3 Method;CR2O3;CR2O3 Units;CR2O3 Method;FE2O3;FE2O3 Units;FE2O3 Method;FE2O3T;FE2O3T Units;FE2O3T Method;FEO;FEO Units;FEO Method;FEOT;FEOT Units;FEOT Method;NIO;NIO Units;NIO Method;MNO;MNO Units;MNO Method;MGO;MGO Units;MGO Method;CAO;CAO Units;CAO Method;SRO;SRO Units;SRO Method;NA2O;NA2O Units;NA2O Method;K2O;K2O Units;K2O Method;P2O5;P2O5 Units;P2O5 Method;BAO;BAO Units;BAO Method;LOI;LOI Units;LOI Method;H2O;H2O Units;H2O Method;H2O_M;H2O_M Units;H2O_M Method;H2O_P;H2O_P Units;H2O_P Method;SO3;SO3 Units;SO3 Method;COO;COO Units;COO Method;MN;MN Units;MN Method;NI;NI Units;NI Method;CO;CO Units;CO Method;CU;CU Units;CU Method;CD;CD Units;CD Method;ZN;ZN Units;ZN Method;AS;AS Units;AS Method;AG;AG Units;AG Method;S;S Units;S Method;ZRO2;ZRO2 Units;ZRO2 Method;AL;AL Units;AL Method;CA;CA Units;CA Method;SR87_SR86;SR87_SR86 Units;SR87_SR86 Method;SR87_SR86_INI;SR87_SR86_INI Units;SR87_SR86_INI Method;RB87_SR86;RB87_SR86 Units;RB87_SR86 Method;ND143_ND144;ND143_ND144 Units;ND143_ND144 Method;ND143_ND144_INI;ND143_ND144_INI Units;ND143_ND144_INI Method;SM147_ND144;SM147_ND144 Units;SM147_ND144 Method;E_ND;E_ND Units;E_ND Method;E_ND_INI;E_ND_INI Units;E_ND_INI Method;PB204_PB206;PB204_PB206 Units;PB204_PB206 Method;PB206_PB204;PB206_PB204 Units;PB206_PB204 Method;PB206_PB204_INI;PB206_PB204_INI Units;PB206_PB204_INI Method;PB207_PB204;PB207_PB204 Units;PB207_PB204 Method;PB207_PB204_INI;PB207_PB204_INI Units;PB207_PB204_INI Method;PB207_PB206;PB207_PB206 Units;PB207_PB206 Method;PB208_PB204;PB208_PB204 Units;PB208_PB204 Method;PB208_PB204_INI;PB208_PB204_INI Units;PB208_PB204_INI Method;PB208_PB206;PB208_PB206 Units;PB208_PB206 Method;HF176_HF177;HF176_HF177 Units;HF176_HF177 Method;RE187_OS188;RE187_OS188 Units;RE187_OS188 Method;OS187_OS188;OS187_OS188 Units;OS187_OS188 Method;OS187_OS188_INI;OS187_OS188_INI Units;OS187_OS188_INI Method;G_OS;G_OS Units;G_OS Method;G_OS_INI;G_OS_INI Units;G_OS_INI Method;ND143_ND144_INI;ND143_ND144_INI Units;ND143_ND144_INI Method;PB206_PB204_INI;PB206_PB204_INI Units;PB206_PB204_INI Method;PB207_PB204_INI;PB207_PB204_INI Units;PB207_PB204_INI Method;PB208_PB204_INI;PB208_PB204_INI Units;PB208_PB204_INI Method;SR87_SR86_INI;SR87_SR86_INI Units;SR87_SR86_INI Method;HE;HE Units;HE Method;HE3;HE3 Units;HE3 Method;HE3_HE4_R_RA;HE3_HE4_R_RA Units;HE3_HE4_R_RA Method;AR36;AR36 Units;AR36 Method;AR40;AR40 Units;AR40 Method;AR40_AR36;AR40_AR36 Units;AR40_AR36 Method;NE20;NE20 Units;NE20 Method;NE20_NE22;NE20_NE22 Units;NE20_NE22 Method;NE21_NE22;NE21_NE22 Units;NE21_NE22 Method;LA;LA Units;LA Method;CE;CE Units;CE Method;PR;PR Units;PR Method;ND;ND Units;ND Method;SM;SM Units;SM Method;EU;EU Units;EU Method;GD;GD Units;GD Method;TB;TB Units;TB Method;DY;DY Units;DY Method;HO;HO Units;HO Method;ER;ER Units;ER Method;TM;TM Units;TM Method;YB;YB Units;YB Method;LU;LU Units;LU Method;CO2;CO2 Units;CO2 Method;F;F Units;F Method;CL;CL Units;CL Method;U238_PB204;U238_PB204 Units;U238_PB204 Method;TH230_TH232;TH230_TH232 Units;TH230_TH232 Method;RA226_ACTIVITY;RA226_ACTIVITY Units;RA226_ACTIVITY Method;PB210_RA226;PB210_RA226 Units;PB210_RA226 Method;PB210_ACTIVITY;PB210_ACTIVITY Units;PB210_ACTIVITY Method;AG;AG Units;AG Method;AL;AL Units;AL Method;AS;AS Units;AS Method;AU;AU Units;AU Method;B;B Units;B Method;BA;BA Units;BA Method;BE;BE Units;BE Method;BI;BI Units;BI Method;CA;CA Units;CA Method;CD;CD Units;CD Method;CO;CO Units;CO Method;CR;CR Units;CR Method;CS;CS Units;CS Method;CU;CU Units;CU Method;GA;GA Units;GA Method;GER;GER Units;GER Method;HF;HF Units;HF Method;INDIUM;INDIUM Units;INDIUM Method;IR;IR Units;IR Method;K;K Units;K Method;LI;LI Units;LI Method;MN;MN Units;MN Method;MO;MO Units;MO Method;NA;NA Units;NA Method;NB;NB Units;NB Method;NI;NI Units;NI Method;OS;OS Units;OS Method;P;P Units;P Method;PB;PB Units;PB Method;PD;PD Units;PD Method;PT;PT Units;PT Method;RB;RB Units;RB Method;RE;RE Units;RE Method;RH;RH Units;RH Method;RU;RU Units;RU Method;S;S Units;S Method;SB;SB Units;SB Method;SC;SC Units;SC Method;SN;SN Units;SN Method;SR;SR Units;SR Method;TA;TA Units;TA Method;TH;TH Units;TH Method;TI;TI Units;TI Method;TL;TL Units;TL Method;U;U Units;U Method;V;V Units;V Method;W;W Units;W Method;Y;Y Units;Y Method;ZN;ZN Units;ZN Method;ZR;ZR Units;ZR Method;DELTA_O18;DELTA_O18 Units;DELTA_O18 Method;DELTA_C13;DELTA_C13 Units;DELTA_C13 Method;DELTA_MO98;DELTA_MO98 Units;DELTA_MO98 Method;DELTA_ZN66;DELTA_ZN66 Units;DELTA_ZN66 Method;DELTA_ZN68;DELTA_ZN68 Units;DELTA_ZN68 Method;OS188;OS188 Units;OS188 Method;FE3P_FET;FE3P_FET Units;FE3P_FET Method;TI;TI Units;TI Method;AS;AS Units;AS Method;AS;AS Units;AS Method;GER;GER Units;GER Method;H2O_M;H2O_M Units;H2O_M Method;H2O_P;H2O_P Units;H2O_P Method;H2O_M;H2O_M Units;H2O_M Method;H2O_P;H2O_P Units;H2O_P Method;INDIUM;INDIUM Units;INDIUM Method
GROSCAMP-W-225234;;GROSSMAN-CAMP;GROSSMAN, 1991;38,7736;-77,5206;0,001;;;CONTINENTAL_RIFT;;;;"AAS; COL; ICP; INAA; TITR; Unknown";WHOLE ROCK;IGNEOUS:VOLCANIC:MAFIC;DIABASE;;50,3;wt%;COL;1,1;wt%;COL;14,3;wt%;COL;;;;2,1;wt%;Unknown;;;;8,3;wt%;TITR;;;;;;;0,19;wt%;AAS;7;wt%;AAS;10,2;wt%;Unknown;;;;0,23;wt%;Unknown;0,76;wt%;AAS;0,17;wt%;COL;;;;;;;;;;0,7;wt%;TITR;1,5;wt%;TITR;;;;;;;;;;83;ppm;Unknown;46;ppm;Unknown;110;ppm;Unknown;;;;127;ppm;Unknown;;;;;;;;;;;;;;;;;;;;;;;;;;;;;;;;;;;;;;;;;;;;;;;;;;;;;;;;;;;;;;;;;;;;;;;;;;;;;;;;;;;;;;;;;;;;;;;;;;;;;;;;;;;;;;;;;;;;;;;;;;;;;;;;;;11,2;ppm;INAA;21,8;ppm;INAA;;;;13;ppm;INAA;3,7;ppm;INAA;0,96;ppm;INAA;;;;0,59;ppm;INAA;;;;;;;;;;;;;2,2;ppm;INAA;0,37;ppm;INAA;0,03;ppm;TITR;;;;;;;;;;;;;;;;;;;;;;;;;;;;;;;;;;;;;142;ppm;Unknown;;;;;;;;;;;;;46;ppm;Unknown;275;ppm;Unknown;1,59;ppm;INAA;110;ppm;Unknown;;;;;;;2,38;ppm;INAA;;;;;;;;;;;;;;;;;;;;;;7,4;ppm;ICP;83;ppm;Unknown;;;;;;;;;;7;ppm;Unknown;4;ppm;Unknown;30;ppm;Unknown;;;;;;;;;;;;;0,34;ppm;INAA;36;ppm;INAA;;;;191;ppm;Unknown;0,52;ppm;INAA;2,23;ppm;INAA;;;;;;;0,54;ppm;INAA;;;;;;;22;ppm;Unknown;127;ppm;Unknown;91;ppm;Unknown;;;;;;;;;;;;;;;;;;;;;;;;;;;;;;;;;;0,7;wt%;TITR;1,5;wt%;TITR;0,7;wt%;TITR;1,5;wt%;TITR;;;
GROSCAMP-W-225235;;GROSSMAN-CAMP;GROSSMAN, 1991;38,7736;-77,5206;0,001;;;CONTINENTAL_RIFT;;;;"AAS; COL; ICP; INAA; TITR; Unknown";WHOLE ROCK;IGNEOUS:VOLCANIC:MAFIC;DIABASE;;49,4;wt%;COL;1,2;wt%;COL;14,7;wt%;COL;;;;3;wt%;Unknown;;;;7,5;wt%;TITR;;;;;;;0,19;wt%;AAS;7,1;wt%;AAS;10,9;wt%;Unknown;;;;0,25;wt%;Unknown;0,37;wt%;AAS;0,17;wt%;COL;;;;;;;;;;1,2;wt%;TITR;3,1;wt%;TITR;;;;;;;;;;87;ppm;Unknown;48;ppm;Unknown;140;ppm;Unknown;;;;108;ppm;Unknown;;;;;;;;;;;;;;;;;;;;;;;;;;;;;;;;;;;;;;;;;;;;;;;;;;;;;;;;;;;;;;;;;;;;;;;;;;;;;;;;;;;;;;;;;;;;;;;;;;;;;;;;;;;;;;;;;;;;;;;;;;;;;;;;;;12;ppm;INAA;22,7;ppm;INAA;;;;10;ppm;INAA;3,9;ppm;INAA;0,93;ppm;INAA;;;;0,63;ppm;INAA;;;;;;;;;;;;;2,34;ppm;INAA;0,36;ppm;INAA;0,03;ppm;TITR;;;;;;;;;;;;;;;;;;;;;;;;;;;;;;;;;;;;;98;ppm;Unknown;;;;;;;;;;;;;48;ppm;Unknown;320;ppm;Unknown;1,3;ppm;INAA;140;ppm;Unknown;;;;;;;2,56;ppm;INAA;;;;;;;;;;;;;;;;;;;;;;7,3;ppm;ICP;87;ppm;Unknown;;;;;;;;;;3,7;ppm;Unknown;3;ppm;Unknown;11;ppm;Unknown;;;;0,5;ppm;Unknown;;;;;;;;;;38;ppm;INAA;;;;169;ppm;Unknown;0,52;ppm;INAA;2,28;ppm;INAA;;;;;;;0,47;ppm;INAA;;;;;;;23;ppm;Unknown;108;ppm;Unknown;95;ppm;Unknown;;;;;;;;;;;;;;;;;;;;;;;;;;;;;;;;;;1,2;wt%;TITR;3,1;wt%;TITR;1,2;wt%;TITR;3,1;wt%;TITR;;;
GROSCAMP-W-225240;;GROSSMAN-CAMP;GROSSMAN, 1991;38,7722;-77,5206;0,001;;;CONTINENTAL_RIFT;;;;"AAS; COL; ICP; INAA; TITR; Unknown";WHOLE ROCK;IGNEOUS:VOLCANIC:MAFIC;DIABASE;;51,6;wt%;COL;1,2;wt%;COL;14,7;wt%;COL;;;;2,7;wt%;Unknown;;;;8;wt%;TITR;;;;;;;0,19;wt%;AAS;6,4;wt%;AAS;10,3;wt%;Unknown;;;;0,22;wt%;Unknown;0,97;wt%;AAS;0,16;wt%;COL;;;;;;;;;;0,24;wt%;TITR;1,6;wt%;TITR;;;;;;;;;;65;ppm;Unknown;45;ppm;Unknown;120;ppm;Unknown;;;;143;ppm;Unknown;;;;;;;;;;;;;;;;;;;;;;;;;;;;;;;;;;;;;;;;;;;;;;;;;;;;;;;;;;;;;;;;;;;;;;;;;;;;;;;;;;;;;;;;;;;;;;;;;;;;;;;;;;;;;;;;;;;;;;;;;;;;;;;;;;12;ppm;INAA;21,5;ppm;INAA;;;;15;ppm;INAA;4;ppm;INAA;1,07;ppm;INAA;;;;0,66;ppm;INAA;;;;;;;;;;;;;2,54;ppm;INAA;0,35;ppm;INAA;0,05;ppm;TITR;;;;;;;;;;;;;;;;;;;;;;;;;;;;;;;;;;;;;214;ppm;Unknown;;;;;;;;;;;;;45;ppm;Unknown;226;ppm;Unknown;2,4;ppm;INAA;120;ppm;Unknown;;;;;;;2,76;ppm;INAA;;;;;;;;;;;;;;;;;;;;;;7,9;ppm;ICP;65;ppm;Unknown;;;;;;;;;;6;ppm;Unknown;5,6;ppm;Unknown;36;ppm;Unknown;;;;1;ppm;Unknown;;;;;;;;;;38;ppm;INAA;;;;199;ppm;Unknown;0,55;ppm;INAA;2,41;ppm;INAA;;;;;;;0,64;ppm;INAA;;;;;;;24;ppm;Unknown;143;ppm;Unknown;107;ppm;Unknown;;;;;;;;;;;;;;;;;;;;;;;;;;;;;;;;;;0,24;wt%;TITR;1,6;wt%;TITR;0,24;wt%;TITR;1,6;wt%;TITR;;;
GROSCAMP-W-227666;;GROSSMAN-CAMP;GROSSMAN, 1991;38,526;-78,014;0,001;;;CONTINENTAL_RIFT;;;;"AAS; COL; ES; ICP; INAA; TITR; Unknown";WHOLE ROCK;IGNEOUS:VOLCANIC:MAFIC;DIABASE;;48,3;wt%;COL;2,3;wt%;COL;13,8;wt%;COL;;;;4,5;wt%;Unknown;;;;8,9;wt%;TITR;;;;;;;0,19;wt%;AAS;6,2;wt%;AAS;8,9;wt%;Unknown;;;;2,5;wt%;Unknown;1,3;wt%;AAS;0,29;wt%;COL;;;;;;;;;;0,3;wt%;TITR;1,7;wt%;TITR;;;;;;;;;;53;ppm;Unknown;48;ppm;Unknown;14;ppm;Unknown;;;;94;ppm;Unknown;;;;;;;;;;;;;;;;;;;;;;;;;;;;;;;;;;;;;;;;;;;;;;;;;;;;;;;;;;;;;;;;;;;;;;;;;;;;;;;;;;;;;;;;;;;;;;;;;;;;;;;;;;;;;;;;;;;;;;;;;;;;;;;;;;14,5;ppm;INAA;32;ppm;INAA;;;;24;ppm;INAA;5,6;ppm;INAA;1,71;ppm;INAA;;;;0,95;ppm;INAA;;;;;;;;;;;;;2,81;ppm;INAA;0,44;ppm;INAA;0,02;ppm;TITR;0,03;ppm;INAA;0,06;ppm;INAA;;;;;;;;;;;;;;;;;;;;;;;;;;;;34;ppm;ES;310;ppm;Unknown;;;;;;;;;;;;;48;ppm;Unknown;75;ppm;Unknown;0,51;ppm;INAA;14;ppm;Unknown;;;;;;;3,9;ppm;INAA;;;;;;;;;;;;;;;;;;;;;;14,1;ppm;ICP;53;ppm;Unknown;;;;;;;;;;12;ppm;Unknown;14;ppm;Unknown;80;ppm;Unknown;;;;;;;;;;;;;0,37;ppm;INAA;40;ppm;INAA;;;;420;ppm;Unknown;1,05;ppm;INAA;1,1;ppm;INAA;;;;;;;;;;;;;;;;33;ppm;Unknown;94;ppm;Unknown;156;ppm;Unknown;;;;;;;;;;;;;;;;;;;;;;;;;;;;;;;;;;0,3;wt%;TITR;1,7;wt%;TITR;0,3;wt%;TITR;1,7;wt%;TITR;;;
GROSCAMP-W-227667;;GROSSMAN-CAMP;GROSSMAN, 1991;38,526;-78,014;0,001;;;CONTINENTAL_RIFT;;;;"AAS; COL; ES; ICP; INAA; TITR; Unknown";WHOLE ROCK;IGNEOUS:VOLCANIC:MAFIC;DIABASE;;51,5;wt%;COL;1;wt%;COL;13,7;wt%;COL;;;;1,6;wt%;Unknown;;;;8,7;wt%;TITR;;;;;;;0,17;wt%;AAS;8,2;wt%;AAS;10,6;wt%;Unknown;;;;1,9;wt%;Unknown;0,59;wt%;AAS;0,15;wt%;COL;;;;;;;;;;0,27;wt%;TITR;0,83;wt%;TITR;;;;;;;;;;100;ppm;Unknown;49;ppm;Unknown;110;ppm;Unknown;;;;89;ppm;Unknown;;;;;;;0,02;ppm;INAA;;;;;;;;;;;;;;;;;;;;;;;;;;;;;;;;;;;;;;;;;;;;;;;;;;;;;;;;;;;;;;;;;;;;;;;;;;;;;;;;;;;;;;;;;;;;;;;;;;;;;;;;;;;;;;;;;;;;;;;;;10;ppm;INAA;23,5;ppm;INAA;;;;23;ppm;INAA;3,3;ppm;INAA;1,06;ppm;INAA;;;;0,56;ppm;INAA;;;;;;;;;;;;;2,02;ppm;INAA;0,36;ppm;INAA;0,05;ppm;TITR;0,02;ppm;INAA;0,02;ppm;INAA;;;;;;;;;;;;;;;;;;;;;;;;;;;;4;ppm;ES;159;ppm;Unknown;;;;;;;;;;;;;49;ppm;Unknown;420;ppm;Unknown;1,4;ppm;INAA;110;ppm;Unknown;;;;;;;2,48;ppm;INAA;;;;;;;;;;;;;;;;;;;;;;6,3;ppm;ICP;100;ppm;Unknown;;;;;;;;;;13;ppm;Unknown;21;ppm;Unknown;19;ppm;Unknown;;;;;;;;;;0,02;ppm;INAA;;;;37;ppm;INAA;;;;183;ppm;Unknown;0,53;ppm;INAA;1,95;ppm;INAA;;;;;;;;;;;;;;;;27;ppm;Unknown;89;ppm;Unknown;106;ppm;Unknown;;;;;;;;;;;;;;;;;;;;;;;;;;;;;;;;;;0,27;wt%;TITR;0,83;wt%;TITR;0,27;wt%;TITR;0,83;wt%;TITR;;;
GROSCAMP-W-228164;;GROSSMAN-CAMP;GROSSMAN, 1991;36,0667;-78,8833;0,001;;;CONTINENTAL_RIFT;;;;"AAS; COL; ES; ICP; INAA; TITR; Unknown";WHOLE ROCK;IGNEOUS:VOLCANIC:MAFIC;DIABASE;;47,8;wt%;COL;0,71;wt%;COL;16,7;wt%;COL;;;;3,9;wt%;Unknown;;;;7,2;wt%;TITR;;;;;;;0,18;wt%;AAS;7,1;wt%;AAS;11,5;wt%;Unknown;;;;1,75;wt%;Unknown;0,26;wt%;AAS;0,12;wt%;COL;;;;;;;;;;0,9;wt%;TITR;1,6;wt%;TITR;;;;;;;;;;160;ppm;Unknown;53;ppm;Unknown;139;ppm;Unknown;;;;81;ppm;Unknown;;;;;;;0,07;ppm;INAA;;;;;;;;;;;;;;;;;;;;;;;;;;;;;;;;;;;;;;;;;;;;;;;;;;;;;;;;;;;;;;;;;;;;;;;;;;;;;;;;;;;;;;;;;;;;;;;;;;;;;;;;;;;;;;;;;;;;;;;;;5,7;ppm;INAA;12;ppm;INAA;;;;;;;2,2;ppm;INAA;0,74;ppm;INAA;;;;0,59;ppm;INAA;;;;;;;;;;;;;3,1;ppm;INAA;0,47;ppm;INAA;0,02;ppm;TITR;0;ppm;INAA;0;ppm;INAA;;;;;;;;;;;;;;;;;;;;;;;;;;;;4;ppm;ES;122;ppm;Unknown;;;;;;;;;;;;;53;ppm;Unknown;273;ppm;Unknown;1,2;ppm;INAA;139;ppm;Unknown;;;;;;;1,5;ppm;INAA;;;;;;;;;;;;;;;;;;;;;;2;ppm;ICP;160;ppm;Unknown;;;;;;;;;;4,4;ppm;Unknown;11;ppm;Unknown;11;ppm;Unknown;;;;;;;;;;0,07;ppm;INAA;0,38;ppm;INAA;45;ppm;INAA;;;;170;ppm;Unknown;0,12;ppm;INAA;0,35;ppm;INAA;;;;;;;;;;;;;;;;33;ppm;Unknown;81;ppm;Unknown;71;ppm;Unknown;;;;;;;;;;;;;;;;;;;;;;;;;;;;;;;;;;0,9;wt%;TITR;1,6;wt%;TITR;0,9;wt%;TITR;1,6;wt%;TITR;;;
GROSCAMP-W-228165;;GROSSMAN-CAMP;GROSSMAN, 1991;36,0667;-78,8833;0,001;;;CONTINENTAL_RIFT;;;;"AAS; COL; ES; ICP; INAA; TITR; Unknown";WHOLE ROCK;IGNEOUS:VOLCANIC:MAFIC;DIABASE;;48,8;wt%;COL;0,72;wt%;COL;16,6;wt%;COL;;;;2,6;wt%;Unknown;;;;8,5;wt%;TITR;;;;;;;0,18;wt%;AAS;8,2;wt%;AAS;11,4;wt%;Unknown;;;;2,02;wt%;Unknown;0,29;wt%;AAS;0,12;wt%;COL;;;;;;;;;;0,36;wt%;TITR;0,62;wt%;TITR;;;;;;;;;;140;ppm;Unknown;51;ppm;Unknown;142;ppm;Unknown;;;;78;ppm;Unknown;;;;;;;0,08;ppm;INAA;;;;;;;;;;;;;;;;;;;;;;;;;;;;;;;;;;;;;;;;;;;;;;;;;;;;;;;;;;;;;;;;;;;;;;;;;;;;;;;;;;;;;;;;;;;;;;;;;;;;;;;;;;;;;;;;;;;;;;;;;5,7;ppm;INAA;11;ppm;INAA;;;;;;;2,24;ppm;INAA;0,75;ppm;INAA;;;;0,6;ppm;INAA;;;;;;;;;;;;;3,3;ppm;INAA;0,45;ppm;INAA;0,02;ppm;TITR;;;;;;;;;;;;;;;;;;;;;;;;;;;;;;;;;;2;ppm;ES;169;ppm;Unknown;;;;;;;;;;;;;51;ppm;Unknown;262;ppm;Unknown;0,33;ppm;INAA;142;ppm;Unknown;;;;;;;1,4;ppm;INAA;;;;;;;;;;;;;;;;;;;;;;1,8;ppm;ICP;140;ppm;Unknown;;;;;;;;;;4,8;ppm;Unknown;11;ppm;Unknown;5;ppm;Unknown;;;;;;;;;;0,08;ppm;INAA;;;;45;ppm;INAA;;;;179;ppm;Unknown;0,11;ppm;INAA;0,39;ppm;INAA;;;;;;;;;;;;;;;;29;ppm;Unknown;78;ppm;Unknown;66;ppm;Unknown;;;;;;;;;;;;;;;;;;;;;;;;;;;;;;;;;;0,36;wt%;TITR;0,62;wt%;TITR;0,36;wt%;TITR;0,62;wt%;TITR;;;
GROSCAMP-W-228166;;GROSSMAN-CAMP;GROSSMAN, 1991;36,0667;-78,8833;0,001;;;CONTINENTAL_RIFT;;;;"AAS; COL; ES; ICP; INAA; TITR; Unknown";WHOLE ROCK;IGNEOUS:VOLCANIC:MAFIC;DIABASE;;48;wt%;COL;0,55;wt%;COL;17,6;wt%;COL;;;;2,3;wt%;Unknown;;;;7,6;wt%;TITR;;;;;;;0,16;wt%;AAS;9,6;wt%;AAS;11,5;wt%;Unknown;;;;1,75;wt%;Unknown;0,24;wt%;AAS;0,1;wt%;COL;;;;;;;;;;0,41;wt%;TITR;0,55;wt%;TITR;;;;;;;;;;230;ppm;Unknown;54;ppm;Unknown;135;ppm;Unknown;;;;71;ppm;Unknown;;;;;;;0,06;ppm;INAA;;;;;;;;;;;;;;;;;;;;;;;;;;;;;;;;;;;;;;;;;;;;;;;;;;;;;;;;;;;;;;;;;;;;;;;;;;;;;;;;;;;;;;;;;;;;;;;;;;;;;;;;;;;;;;;;;;;;;;;;;4,2;ppm;INAA;9,6;ppm;INAA;;;;6,4;ppm;INAA;1,73;ppm;INAA;0,63;ppm;INAA;;;;0,43;ppm;INAA;;;;;;;;;;;;;2,4;ppm;INAA;0,37;ppm;INAA;0,01;ppm;TITR;0,38;ppm;INAA;;;;;;;;;;;;;;;;;;;;;;;;;;;;;;;2;ppm;ES;126;ppm;Unknown;;;;;;;;;;;;;54;ppm;Unknown;350;ppm;Unknown;0,45;ppm;INAA;135;ppm;Unknown;;;;;;;1,2;ppm;INAA;;;;;;;;;;;;;;;;;;;;;;1,4;ppm;ICP;230;ppm;Unknown;;;;;;;;;;6;ppm;Unknown;12;ppm;Unknown;6;ppm;Unknown;;;;;;;;;;0,06;ppm;INAA;;;;38;ppm;INAA;;;;200;ppm;Unknown;0,096;ppm;INAA;0,47;ppm;INAA;;;;;;;;;;;;;;;;25;ppm;Unknown;71;ppm;Unknown;53;ppm;Unknown;;;;;;;;;;;;;;;;;;;;;;;;;;;;;;;;;;0,41;wt%;TITR;0,55;wt%;TITR;0,41;wt%;TITR;0,55;wt%;TITR;;;
GROSCAMP-W-228167;;GROSSMAN-CAMP;GROSSMAN, 1991;36,0667;-78,8833;0,001;;;CONTINENTAL_RIFT;;;;"AAS; COL; ES; ICP; INAA; TITR; Unknown";WHOLE ROCK;IGNEOUS:VOLCANIC:MAFIC;DIABASE;;48,7;wt%;COL;0,71;wt%;COL;16,7;wt%;COL;;;;3,2;wt%;Unknown;;;;7,9;wt%;TITR;;;;;;;0,18;wt%;AAS;8,1;wt%;AAS;11,4;wt%;Unknown;;;;1,89;wt%;Unknown;0,29;wt%;AAS;0,12;wt%;COL;;;;;;;;;;0,51;wt%;TITR;0,89;wt%;TITR;;;;;;;;;;150;ppm;Unknown;51;ppm;Unknown;154;ppm;Unknown;;;;84;ppm;Unknown;;;;;;;0,08;ppm;INAA;;;;;;;;;;;;;;;;;;;;;;;;;;;;;;;;;;;;;;;;;;;;;;;;;;;;;;;;;;;;;;;;;;;;;;;;;;;;;;;;;;;;;;;;;;;;;;;;;;;;;;;;;;;;;;;;;;;;;;;;;5,7;ppm;INAA;13;ppm;INAA;;;;8,3;ppm;INAA;2,25;ppm;INAA;0,77;ppm;INAA;;;;0,56;ppm;INAA;;;;;;;;;;;;;3,1;ppm;INAA;0,49;ppm;INAA;0,02;ppm;TITR;0,38;ppm;INAA;0;ppm;INAA;;;;;;;;;;;;;;;;;;;;;;;;;;;;2;ppm;ES;146;ppm;Unknown;;;;;;;;;;;;;51;ppm;Unknown;267;ppm;Unknown;0,55;ppm;INAA;154;ppm;Unknown;;;;;;;1,6;ppm;INAA;;;;;;;;;;;;;;;;;;;;;;2,1;ppm;ICP;150;ppm;Unknown;;;;;;;;;;4,6;ppm;Unknown;11;ppm;Unknown;10;ppm;Unknown;;;;;;;;;;0,08;ppm;INAA;;;;44;ppm;INAA;;;;147;ppm;Unknown;0,12;ppm;INAA;0,35;ppm;INAA;;;;;;;;;;;;;;;;29;ppm;Unknown;84;ppm;Unknown;68;ppm;Unknown;;;;;;;;;;;;;;;;;;;;;;;;;;;;;;;;;;0,51;wt%;TITR;0,89;wt%;TITR;0,51;wt%;TITR;0,89;wt%;TITR;;;
GROSCAMP-W-228168;;GROSSMAN-CAMP;GROSSMAN, 1991;36,0667;-78,8833;0,001;;;CONTINENTAL_RIFT;;;;"AAS; COL; ES; ICP; INAA; TITR; Unknown";WHOLE ROCK;IGNEOUS:VOLCANIC:MAFIC;DIABASE;;48,2;wt%;COL;0,72;wt%;COL;16,5;wt%;COL;;;;3,1;wt%;Unknown;;;;8;wt%;TITR;;;;;;;0,18;wt%;AAS;7,9;wt%;AAS;11,4;wt%;Unknown;;;;2,02;wt%;Unknown;0,24;wt%;AAS;0,12;wt%;COL;;;;;;;;;;0,47;wt%;TITR;1;wt%;TITR;;;;;;;;;;140;ppm;Unknown;50;ppm;Unknown;163;ppm;Unknown;;;;79;ppm;Unknown;;;;;;;0,06;ppm;INAA;;;;;;;;;;;;;;;;;;;;;;;;;;;;;;;;;;;;;;;;;;;;;;;;;;;;;;;;;;;;;;;;;;;;;;;;;;;;;;;;;;;;;;;;;;;;;;;;;;;;;;;;;;;;;;;;;;;;;;;;;5,8;ppm;INAA;12;ppm;INAA;;;;7;ppm;INAA;2,27;ppm;INAA;0,78;ppm;INAA;;;;0,6;ppm;INAA;;;;;;;;;;;;;3,1;ppm;INAA;0,47;ppm;INAA;0,03;ppm;TITR;;;;0;ppm;INAA;;;;;;;;;;;;;;;;;;;;;;;;;;;;2;ppm;ES;150;ppm;Unknown;;;;;;;;;;;;;50;ppm;Unknown;265;ppm;Unknown;0,51;ppm;INAA;163;ppm;Unknown;;;;;;;1,5;ppm;INAA;;;;;;;;;;;;;;;;;;;;;;1,7;ppm;ICP;140;ppm;Unknown;;;;;;;;;;6,2;ppm;Unknown;11;ppm;Unknown;5;ppm;Unknown;;;;;;;;;;0,06;ppm;INAA;;;;45;ppm;INAA;;;;157;ppm;Unknown;0,12;ppm;INAA;0,46;ppm;INAA;;;;;;;;;;;;;;;;33;ppm;Unknown;79;ppm;Unknown;67;ppm;Unknown;;;;;;;;;;;;;;;;;;;;;;;;;;;;;;;;;;0,47;wt%;TITR;1;wt%;TITR;0,47;wt%;TITR;1;wt%;TITR;;;
GROSCAMP-W-228172;;GROSSMAN-CAMP;GROSSMAN, 1991;36,0667;-78,8833;0,001;;;CONTINENTAL_RIFT;;;;"AAS; COL; ES; ICP; INAA; TITR; Unknown";WHOLE ROCK;IGNEOUS:VOLCANIC:MAFIC;DIABASE;;45,6;wt%;COL;0,31;wt%;COL;19,1;wt%;COL;;;;1,6;wt%;Unknown;;;;7,4;wt%;TITR;;;;;;;0,14;wt%;AAS;13;wt%;AAS;11,2;wt%;Unknown;;;;1,48;wt%;Unknown;0,03;wt%;AAS;0,06;wt%;COL;;;;;;;;;;0,19;wt%;TITR;0,81;wt%;TITR;;;;;;;;;;390;ppm;Unknown;69;ppm;Unknown;87;ppm;Unknown;;;;61;ppm;Unknown;;;;;;;0,04;ppm;INAA;;;;;;;;;;;;;;;;;;;;;;;;;;;;;;;;;;;;;;;;;;;;;;;;;;;;;;;;;;;;;;;;;;;;;;;;;;;;;;;;;;;;;;;;;;;;;;;;;;;;;;;;;;;;;;;;;;;;;;;;;2,7;ppm;INAA;6;ppm;INAA;;;;3,4;ppm;INAA;1;ppm;INAA;0,43;ppm;INAA;;;;0,29;ppm;INAA;;;;;;;;;;;;;1,3;ppm;INAA;0,21;ppm;INAA;0,01;ppm;TITR;0;ppm;INAA;;;;;;;;;;;;;;;;;;;;;;;;;;;;;;;2;ppm;ES;84;ppm;Unknown;;;;;;;;;;;;;69;ppm;Unknown;251;ppm;Unknown;0,22;ppm;INAA;87;ppm;Unknown;;;;;;;0,73;ppm;INAA;;;;;;;;;;;;;;;;;;;;;;0,7;ppm;ICP;390;ppm;Unknown;;;;;;;;;;5,8;ppm;Unknown;12;ppm;Unknown;3;ppm;Unknown;;;;;;;;;;0,04;ppm;INAA;;;;23,4;ppm;INAA;;;;153;ppm;Unknown;0,06;ppm;INAA;0,3;ppm;INAA;;;;;;;;;;;;;;;;14;ppm;Unknown;61;ppm;Unknown;34;ppm;Unknown;;;;;;;;;;;;;;;;;;;;;;;;;;;;;;;;;;0,19;wt%;TITR;0,81;wt%;TITR;0,19;wt%;TITR;0,81;wt%;TITR;;;
GROSCAMP-W-228173;;GROSSMAN-CAMP;GROSSMAN, 1991;36,0667;-78,8833;0,001;;;CONTINENTAL_RIFT;;;;"AAS; COL; ES; ICP; INAA; TITR; Unknown";WHOLE ROCK;IGNEOUS:VOLCANIC:FELSIC;GRANOPHYRE;;46,5;wt%;COL;0,53;wt%;COL;18,7;wt%;COL;;;;2;wt%;Unknown;;;;7,2;wt%;TITR;;;;;;;0,14;wt%;AAS;10,6;wt%;AAS;10,4;wt%;Unknown;;;;1,89;wt%;Unknown;0,16;wt%;AAS;0,1;wt%;COL;;;;;;;;;;0,48;wt%;TITR;1;wt%;TITR;;;;;;;;;;320;ppm;Unknown;61;ppm;Unknown;74;ppm;Unknown;;;;95;ppm;Unknown;;;;;;;0,06;ppm;INAA;;;;;;;;;;;;;;;;;;;;;;;;;;;;;;;;;;;;;;;;;;;;;;;;;;;;;;;;;;;;;;;;;;;;;;;;;;;;;;;;;;;;;;;;;;;;;;;;;;;;;;;;;;;;;;;;;;;;;;;;;4,8;ppm;INAA;10;ppm;INAA;;;;6,4;ppm;INAA;1,77;ppm;INAA;0,62;ppm;INAA;;;;0,49;ppm;INAA;;;;;;;;;;;;;2,3;ppm;INAA;0,34;ppm;INAA;0,03;ppm;TITR;0;ppm;INAA;;;;;;;;;;;;;;;;;;;;;;;;;;;;;;;2;ppm;ES;128;ppm;Unknown;;;;;;;;;;;;;61;ppm;Unknown;227;ppm;Unknown;0,27;ppm;INAA;74;ppm;Unknown;;;;;;;1,3;ppm;INAA;;;;;;;;;;;;;;;;;;;;;;1,5;ppm;ICP;320;ppm;Unknown;;;;;;;;;;7,8;ppm;Unknown;29;ppm;Unknown;8;ppm;Unknown;;;;;;;;;;0,06;ppm;INAA;;;;22,6;ppm;INAA;;;;167;ppm;Unknown;0,13;ppm;INAA;0,37;ppm;INAA;;;;;;;;;;;;;;;;24;ppm;Unknown;95;ppm;Unknown;57;ppm;Unknown;;;;;;;;;;;;;;;;;;;;;;;;;;;;;;;;;;0,48;wt%;TITR;1;wt%;TITR;0,48;wt%;TITR;1;wt%;TITR;;;