SAMPLE ID;IGSN;EXPEDITION ID;REFERENCES;LATITUDE;LONGITUDE;LOC PREC;MIN ELEVATION;MAX ELEVATION;TECTONIC SETTING;MIN AGE;AGE;MAX AGE;METHOD;ANALYZED MATERIAL;ROCK TYPE;ROCK NAME;MINERAL;SIO2;SIO2 Units;SIO2 Method;TIO2;TIO2 Units;TIO2 Method;AL2O3;AL2O3 Units;AL2O3 Method;CR2O3;CR2O3 Units;CR2O3 Method;FE2O3;FE2O3 Units;FE2O3 Method;FE2O3T;FE2O3T Units;FE2O3T Method;FEO;FEO Units;FEO Method;FEOT;FEOT Units;FEOT Method;NIO;NIO Units;NIO Method;MNO;MNO Units;MNO Method;MGO;MGO Units;MGO Method;CAO;CAO Units;CAO Method;SRO;SRO Units;SRO Method;NA2O;NA2O Units;NA2O Method;K2O;K2O Units;K2O Method;P2O5;P2O5 Units;P2O5 Method;BAO;BAO Units;BAO Method;LOI;LOI Units;LOI Method;H2O;H2O Units;H2O Method;H2O_M;H2O_M Units;H2O_M Method;H2O_P;H2O_P Units;H2O_P Method;SO3;SO3 Units;SO3 Method;COO;COO Units;COO Method;MN;MN Units;MN Method;NI;NI Units;NI Method;CO;CO Units;CO Method;CU;CU Units;CU Method;CD;CD Units;CD Method;ZN;ZN Units;ZN Method;AS;AS Units;AS Method;AG;AG Units;AG Method;S;S Units;S Method;ZRO2;ZRO2 Units;ZRO2 Method;AL;AL Units;AL Method;CA;CA Units;CA Method;SR87_SR86;SR87_SR86 Units;SR87_SR86 Method;SR87_SR86_INI;SR87_SR86_INI Units;SR87_SR86_INI Method;RB87_SR86;RB87_SR86 Units;RB87_SR86 Method;ND143_ND144;ND143_ND144 Units;ND143_ND144 Method;ND143_ND144_INI;ND143_ND144_INI Units;ND143_ND144_INI Method;SM147_ND144;SM147_ND144 Units;SM147_ND144 Method;E_ND;E_ND Units;E_ND Method;E_ND_INI;E_ND_INI Units;E_ND_INI Method;PB204_PB206;PB204_PB206 Units;PB204_PB206 Method;PB206_PB204;PB206_PB204 Units;PB206_PB204 Method;PB206_PB204_INI;PB206_PB204_INI Units;PB206_PB204_INI Method;PB207_PB204;PB207_PB204 Units;PB207_PB204 Method;PB207_PB204_INI;PB207_PB204_INI Units;PB207_PB204_INI Method;PB207_PB206;PB207_PB206 Units;PB207_PB206 Method;PB208_PB204;PB208_PB204 Units;PB208_PB204 Method;PB208_PB204_INI;PB208_PB204_INI Units;PB208_PB204_INI Method;PB208_PB206;PB208_PB206 Units;PB208_PB206 Method;HF176_HF177;HF176_HF177 Units;HF176_HF177 Method;RE187_OS188;RE187_OS188 Units;RE187_OS188 Method;OS187_OS188;OS187_OS188 Units;OS187_OS188 Method;OS187_OS188_INI;OS187_OS188_INI Units;OS187_OS188_INI Method;G_OS;G_OS Units;G_OS Method;G_OS_INI;G_OS_INI Units;G_OS_INI Method;ND143_ND144_INI;ND143_ND144_INI Units;ND143_ND144_INI Method;PB206_PB204_INI;PB206_PB204_INI Units;PB206_PB204_INI Method;PB207_PB204_INI;PB207_PB204_INI Units;PB207_PB204_INI Method;PB208_PB204_INI;PB208_PB204_INI Units;PB208_PB204_INI Method;SR87_SR86_INI;SR87_SR86_INI Units;SR87_SR86_INI Method;HE;HE Units;HE Method;HE3;HE3 Units;HE3 Method;HE3_HE4_R_RA;HE3_HE4_R_RA Units;HE3_HE4_R_RA Method;AR36;AR36 Units;AR36 Method;AR40;AR40 Units;AR40 Method;AR40_AR36;AR40_AR36 Units;AR40_AR36 Method;NE20;NE20 Units;NE20 Method;NE20_NE22;NE20_NE22 Units;NE20_NE22 Method;NE21_NE22;NE21_NE22 Units;NE21_NE22 Method;LA;LA Units;LA Method;CE;CE Units;CE Method;PR;PR Units;PR Method;ND;ND Units;ND Method;SM;SM Units;SM Method;EU;EU Units;EU Method;GD;GD Units;GD Method;TB;TB Units;TB Method;DY;DY Units;DY Method;HO;HO Units;HO Method;ER;ER Units;ER Method;TM;TM Units;TM Method;YB;YB Units;YB Method;LU;LU Units;LU Method;CO2;CO2 Units;CO2 Method;F;F Units;F Method;CL;CL Units;CL Method;U238_PB204;U238_PB204 Units;U238_PB204 Method;TH230_TH232;TH230_TH232 Units;TH230_TH232 Method;RA226_ACTIVITY;RA226_ACTIVITY Units;RA226_ACTIVITY Method;PB210_RA226;PB210_RA226 Units;PB210_RA226 Method;PB210_ACTIVITY;PB210_ACTIVITY Units;PB210_ACTIVITY Method;AG;AG Units;AG Method;AL;AL Units;AL Method;AS;AS Units;AS Method;AU;AU Units;AU Method;B;B Units;B Method;BA;BA Units;BA Method;BE;BE Units;BE Method;BI;BI Units;BI Method;CA;CA Units;CA Method;CD;CD Units;CD Method;CO;CO Units;CO Method;CR;CR Units;CR Method;CS;CS Units;CS Method;CU;CU Units;CU Method;GA;GA Units;GA Method;GER;GER Units;GER Method;HF;HF Units;HF Method;INDIUM;INDIUM Units;INDIUM Method;IR;IR Units;IR Method;K;K Units;K Method;LI;LI Units;LI Method;MN;MN Units;MN Method;MO;MO Units;MO Method;NA;NA Units;NA Method;NB;NB Units;NB Method;NI;NI Units;NI Method;OS;OS Units;OS Method;P;P Units;P Method;PB;PB Units;PB Method;PD;PD Units;PD Method;PT;PT Units;PT Method;RB;RB Units;RB Method;RE;RE Units;RE Method;RH;RH Units;RH Method;RU;RU Units;RU Method;S;S Units;S Method;SB;SB Units;SB Method;SC;SC Units;SC Method;SN;SN Units;SN Method;SR;SR Units;SR Method;TA;TA Units;TA Method;TH;TH Units;TH Method;TI;TI Units;TI Method;TL;TL Units;TL Method;U;U Units;U Method;V;V Units;V Method;W;W Units;W Method;Y;Y Units;Y Method;ZN;ZN Units;ZN Method;ZR;ZR Units;ZR Method;DELTA_O18;DELTA_O18 Units;DELTA_O18 Method;DELTA_C13;DELTA_C13 Units;DELTA_C13 Method;DELTA_MO98;DELTA_MO98 Units;DELTA_MO98 Method;DELTA_ZN66;DELTA_ZN66 Units;DELTA_ZN66 Method;DELTA_ZN68;DELTA_ZN68 Units;DELTA_ZN68 Method;OS188;OS188 Units;OS188 Method;FE3P_FET;FE3P_FET Units;FE3P_FET Method;TI;TI Units;TI Method;AS;AS Units;AS Method;AS;AS Units;AS Method;GER;GER Units;GER Method;H2O_M;H2O_M Units;H2O_M Method;H2O_P;H2O_P Units;H2O_P Method;H2O_M;H2O_M Units;H2O_M Method;H2O_P;H2O_P Units;H2O_P Method;INDIUM;INDIUM Units;INDIUM Method
GROSCAMP-W-236249;;GROSSMAN-CAMP;GROSSMAN, 1991;38,526;-78,014;0,001;;;CONTINENTAL_RIFT;;;;"AAS; COL; ICP; INAA; Unknown";WHOLE ROCK;IGNEOUS:VOLCANIC:MAFIC;DIABASE;;;;;;;;;;;;;;;;;8,67;wt%;Unknown;;;;;;;;;;;;;;;;4,34;wt%;Unknown;;;;4,27;wt%;Unknown;;;;0,3;wt%;COL;;;;;;;;;;;;;;;;;;;;;;;;;12;ppm;Unknown;17,3;ppm;Unknown;600;ppm;Unknown;;;;47;ppm;Unknown;4,3;ppm;INAA;0,3;ppm;AAS;0,09;ppm;INAA;;;;;;;;;;;;;;;;;;;;;;;;;;;;;;;;;;;;;;;;;;;;;;;;;;;;;;;;;;;;;;;;;;;;;;;;;;;;;;;;;;;;;;;;;;;;;;;;;;;;;;;;;;;;;;;;;;;;;;;;;54;ppm;INAA;106;ppm;INAA;;;;47;ppm;INAA;12,6;ppm;INAA;2,45;ppm;INAA;;;;2,16;ppm;INAA;;;;;;;;;;;;;7,9;ppm;INAA;1,1;ppm;INAA;;;;0,04;ppm;INAA;0,03;ppm;INAA;;;;;;;;;;;;;;;;0,3;ppm;AAS;;;;4,3;ppm;INAA;;;;;;;420;ppm;Unknown;;;;;;;;;;;;;17,3;ppm;Unknown;;;;0,52;ppm;INAA;600;ppm;Unknown;;;;;;;12,7;ppm;INAA;;;;;;;;;;;;;;;;;;;;;;26;ppm;ICP;12;ppm;Unknown;;;;;;;;;;;;;;;;70;ppm;Unknown;;;;;;;;;;0,09;ppm;INAA;0,22;ppm;INAA;15,4;ppm;INAA;;;;184;ppm;Unknown;2,43;ppm;INAA;13,4;ppm;INAA;;;;;;;2,7;ppm;INAA;;;;;;;77;ppm;Unknown;47;ppm;Unknown;470;ppm;Unknown;;;;;;;;;;;;;;;;;;;;;;;;;4,3;ppm;INAA;4,3;ppm;INAA;;;;;;;;;;;;;;;;;;
GROSCAMP-W-236250;;GROSSMAN-CAMP;GROSSMAN, 1991;38,526;-78,014;0,001;;;CONTINENTAL_RIFT;;;;"AAS; COL; ICP; INAA; Unknown";WHOLE ROCK;IGNEOUS:VOLCANIC:MAFIC;DIABASE;;;;;;;;;;;;;;;;;17,16;wt%;Unknown;;;;;;;;;;;;;;;;10,07;wt%;Unknown;;;;2,55;wt%;Unknown;;;;0,22;wt%;COL;;;;;;;;;;;;;;;;;;;;;;;;;49;ppm;Unknown;55;ppm;Unknown;190;ppm;Unknown;;;;87;ppm;Unknown;;;;0,076;ppm;AAS;0,01;ppm;INAA;;;;;;;;;;;;;;;;;;;;;;;;;;;;;;;;;;;;;;;;;;;;;;;;;;;;;;;;;;;;;;;;;;;;;;;;;;;;;;;;;;;;;;;;;;;;;;;;;;;;;;;;;;;;;;;;;;;;;;;;;16;ppm;INAA;34;ppm;INAA;;;;18;ppm;INAA;5,1;ppm;INAA;1,51;ppm;INAA;;;;0,91;ppm;INAA;;;;;;;;;;;;;3,3;ppm;INAA;0,45;ppm;INAA;;;;0,03;ppm;INAA;0,02;ppm;INAA;;;;;;;;;;;;;;;;0,076;ppm;AAS;;;;;;;26;ppm;INAA;;;;228;ppm;Unknown;;;;;;;;;;;;;55;ppm;Unknown;14;ppm;Unknown;2,5;ppm;INAA;190;ppm;Unknown;;;;;;;4;ppm;INAA;;;;;;;;;;;;;;;;;;;;;;11;ppm;ICP;49;ppm;Unknown;;;;;;;;;;;;;;;;36;ppm;Unknown;;;;;;;;;;0,01;ppm;INAA;;;;40;ppm;INAA;;;;214;ppm;Unknown;0,9;ppm;INAA;3,3;ppm;INAA;;;;;;;0,86;ppm;INAA;;;;;;;32;ppm;Unknown;87;ppm;Unknown;136;ppm;Unknown;;;;;;;;;;;;;;;;;;;;;;;;;;;;;;;;;;;;;;;;;;;;;;;;
GROSCAMP-W-236251;;GROSSMAN-CAMP;GROSSMAN, 1991;38,526;-78,014;0,001;;;CONTINENTAL_RIFT;;;;"AAS; COL; ICP; INAA; Unknown";WHOLE ROCK;IGNEOUS:VOLCANIC:MAFIC;DIABASE;;;;;;;;;;;;;;;;;13;wt%;Unknown;;;;;;;;;;;;;;;;8,25;wt%;Unknown;;;;3,33;wt%;Unknown;;;;0,27;wt%;COL;;;;;;;;;;;;;;;;;;;;;;;;;24;ppm;Unknown;38;ppm;Unknown;147;ppm;Unknown;;;;128;ppm;Unknown;3,4;ppm;INAA;0,074;ppm;AAS;;;;;;;;;;;;;;;;;;;;;;;;;;;;;;;;;;;;;;;;;;;;;;;;;;;;;;;;;;;;;;;;;;;;;;;;;;;;;;;;;;;;;;;;;;;;;;;;;;;;;;;;;;;;;;;;;;;;;;;;;;;;21,4;ppm;INAA;45;ppm;INAA;;;;20;ppm;INAA;6,1;ppm;INAA;1,74;ppm;INAA;;;;1,1;ppm;INAA;;;;;;;;;;;;;3,5;ppm;INAA;0,52;ppm;INAA;;;;0,04;ppm;INAA;0,15;ppm;INAA;;;;;;;;;;;;;;;;0,074;ppm;AAS;;;;3,4;ppm;INAA;14;ppm;INAA;;;;490;ppm;Unknown;;;;;;;;;;;;;38;ppm;Unknown;4,6;ppm;Unknown;1;ppm;INAA;147;ppm;Unknown;;;;;;;4,9;ppm;INAA;;;;;;;;;;;;;;;;;;;;;;14;ppm;ICP;24;ppm;Unknown;;;;;;;;;;10;ppm;Unknown;5,6;ppm;Unknown;97;ppm;Unknown;;;;;;;;;;;;;;;;29,9;ppm;INAA;;;;480;ppm;Unknown;1,1;ppm;INAA;4,4;ppm;INAA;;;;;;;0,91;ppm;INAA;;;;;;;41;ppm;Unknown;128;ppm;Unknown;184;ppm;Unknown;;;;;;;;;;;;;;;;;;;;;;;;;3,4;ppm;INAA;3,4;ppm;INAA;;;;;;;;;;;;;;;;;;
GROSCAMP-W-236252;;GROSSMAN-CAMP;GROSSMAN, 1991;38,526;-78,014;0,001;;;CONTINENTAL_RIFT;;;;"AAS; COL; ICP; INAA; Unknown";WHOLE ROCK;IGNEOUS:VOLCANIC:MAFIC;DIABASE;;;;;;;;;;;;;;;;;13,17;wt%;Unknown;;;;;;;;;;;;;;;;9,93;wt%;Unknown;;;;2,55;wt%;Unknown;;;;0,19;wt%;COL;;;;;;;;;;;;;;;;;;;;;;;;;62;ppm;Unknown;47;ppm;Unknown;49;ppm;Unknown;;;;48;ppm;Unknown;;;;0,025;ppm;AAS;0,02;ppm;INAA;;;;;;;;;;;;;;;;;;;;;;;;;;;;;;;;;;;;;;;;;;;;;;;;;;;;;;;;;;;;;;;;;;;;;;;;;;;;;;;;;;;;;;;;;;;;;;;;;;;;;;;;;;;;;;;;;;;;;;;;;13;ppm;INAA;27;ppm;INAA;;;;14;ppm;INAA;4,1;ppm;INAA;1,33;ppm;INAA;;;;0,81;ppm;INAA;;;;;;;;;;;;;2,6;ppm;INAA;0,39;ppm;INAA;;;;0,03;ppm;INAA;0,11;ppm;INAA;;;;;;;;;;;;;;;;0,025;ppm;AAS;;;;;;;7,8;ppm;INAA;;;;181;ppm;Unknown;;;;;;;;;;;;;47;ppm;Unknown;84;ppm;Unknown;1,8;ppm;INAA;49;ppm;Unknown;;;;;;;3,4;ppm;INAA;;;;;;;;;;;;;;;;;;;;;;8,3;ppm;ICP;62;ppm;Unknown;;;;;;;;;;10;ppm;Unknown;6,6;ppm;Unknown;35;ppm;Unknown;;;;;;;;;;0,02;ppm;INAA;;;;39;ppm;INAA;;;;254;ppm;Unknown;0,71;ppm;INAA;2,6;ppm;INAA;;;;;;;0,87;ppm;INAA;;;;;;;29;ppm;Unknown;48;ppm;Unknown;113;ppm;Unknown;;;;;;;;;;;;;;;;;;;;;;;;;;;;;;;;;;;;;;;;;;;;;;;;
GROSCAMP-W-236253;;GROSSMAN-CAMP;GROSSMAN, 1991;38,526;-78,014;0,001;;;CONTINENTAL_RIFT;;;;"AAS; COL; ICP; INAA; Unknown";WHOLE ROCK;IGNEOUS:VOLCANIC:MAFIC;DIABASE;;;;;;;;;;;;;;;;;12,96;wt%;Unknown;;;;;;;;;;;;;;;;9,79;wt%;Unknown;;;;2,97;wt%;Unknown;;;;0,2;wt%;COL;;;;;;;;;;;;;;;;;;;;;;;;;30;ppm;Unknown;41;ppm;Unknown;170;ppm;Unknown;;;;79;ppm;Unknown;3,2;ppm;INAA;0,074;ppm;AAS;;;;;;;;;;;;;;;;;;;;;;;;;;;;;;;;;;;;;;;;;;;;;;;;;;;;;;;;;;;;;;;;;;;;;;;;;;;;;;;;;;;;;;;;;;;;;;;;;;;;;;;;;;;;;;;;;;;;;;;;;;;;17,6;ppm;INAA;38;ppm;INAA;;;;20;ppm;INAA;5,1;ppm;INAA;1,7;ppm;INAA;;;;0,91;ppm;INAA;;;;;;;;;;;;;3,2;ppm;INAA;0,43;ppm;INAA;;;;0,03;ppm;INAA;0,14;ppm;INAA;;;;;;;;;;;;;;;;0,074;ppm;AAS;;;;3,2;ppm;INAA;7,4;ppm;INAA;;;;310;ppm;Unknown;;;;;;;;;;;;;41;ppm;Unknown;5,1;ppm;Unknown;1,8;ppm;INAA;170;ppm;Unknown;;;;;;;4;ppm;INAA;;;;;;;;;;;;;;;;;;;;;;11;ppm;ICP;30;ppm;Unknown;;;;;;;;;;8,3;ppm;Unknown;5;ppm;Unknown;51;ppm;Unknown;;;;;;;;;;;;;;;;33;ppm;INAA;;;;286;ppm;Unknown;0,91;ppm;INAA;3,8;ppm;INAA;;;;;;;0,8;ppm;INAA;;;;;;;32;ppm;Unknown;79;ppm;Unknown;140;ppm;Unknown;;;;;;;;;;;;;;;;;;;;;;;;;3,2;ppm;INAA;3,2;ppm;INAA;;;;;;;;;;;;;;;;;;
GROSCAMP-W-236254;;GROSSMAN-CAMP;GROSSMAN, 1991;38,526;-78,014;0,001;;;CONTINENTAL_RIFT;;;;"AAS; ICP; INAA; Unknown";WHOLE ROCK;IGNEOUS:VOLCANIC:MAFIC;DIABASE;;;;;;;;;;;;;;;;;12,27;wt%;Unknown;;;;;;;;;;;;;;;;13,15;wt%;Unknown;;;;1,81;wt%;Unknown;;;;;;;;;;;;;;;;;;;;;;;;;;;;;;;110;ppm;Unknown;56;ppm;Unknown;80;ppm;Unknown;;;;69;ppm;Unknown;;;;0,034;ppm;AAS;;;;;;;;;;;;;;;;;;;;;;;;;;;;;;;;;;;;;;;;;;;;;;;;;;;;;;;;;;;;;;;;;;;;;;;;;;;;;;;;;;;;;;;;;;;;;;;;;;;;;;;;;;;;;;;;;;;;;;;;;;;;7,6;ppm;INAA;16;ppm;INAA;;;;8,2;ppm;INAA;2,65;ppm;INAA;0,86;ppm;INAA;;;;0,49;ppm;INAA;;;;;;;;;;;;;1,8;ppm;INAA;0,27;ppm;INAA;;;;;;;;;;;;;;;;;;;;;;;;;0,034;ppm;AAS;;;;;;;;;;;;;120;ppm;Unknown;;;;;;;;;;;;;56;ppm;Unknown;238;ppm;Unknown;0,61;ppm;INAA;80;ppm;Unknown;;;;;;;1,9;ppm;INAA;;;;;;;;;;;;;;;;;;;;;;4,6;ppm;ICP;110;ppm;Unknown;;;;;;;;;;;;;;;;19;ppm;Unknown;;;;;;;;;;;;;;;;45;ppm;INAA;;;;180;ppm;Unknown;0,42;ppm;INAA;1,6;ppm;INAA;;;;;;;0,42;ppm;INAA;;;;;;;21;ppm;Unknown;69;ppm;Unknown;76;ppm;Unknown;;;;;;;;;;;;;;;;;;;;;;;;;;;;;;;;;;;;;;;;;;;;;;;;
GROSCAMP-W-236255;;GROSSMAN-CAMP;GROSSMAN, 1991;38,526;-78,014;0,001;;;CONTINENTAL_RIFT;;;;"AAS; ICP; INAA; Unknown";WHOLE ROCK;IGNEOUS:VOLCANIC:MAFIC;DIABASE;;;;;;;;;;;;;;;;;12,2;wt%;Unknown;;;;;;;;;;;;;;;;13,71;wt%;Unknown;;;;1,77;wt%;Unknown;;;;;;;;;;;;;;;;;;;;;;;;;;;;;;;110;ppm;Unknown;56;ppm;Unknown;61;ppm;Unknown;;;;69;ppm;Unknown;1,9;ppm;INAA;0,042;ppm;AAS;;;;;;;;;;;;;;;;;;;;;;;;;;;;;;;;;;;;;;;;;;;;;;;;;;;;;;;;;;;;;;;;;;;;;;;;;;;;;;;;;;;;;;;;;;;;;;;;;;;;;;;;;;;;;;;;;;;;;;;;;;;;7;ppm;INAA;15;ppm;INAA;;;;10;ppm;INAA;2,5;ppm;INAA;0,82;ppm;INAA;;;;0,48;ppm;INAA;;;;;;;;;;;;;1,7;ppm;INAA;0,26;ppm;INAA;;;;;;;;;;;;;;;;;;;;;;;;;0,042;ppm;AAS;;;;1,9;ppm;INAA;;;;;;;106;ppm;Unknown;;;;;;;;;;;;;56;ppm;Unknown;252;ppm;Unknown;0,56;ppm;INAA;61;ppm;Unknown;;;;;;;1,6;ppm;INAA;;;;;;;;;;;;;;;;;;;;;;4,1;ppm;ICP;110;ppm;Unknown;;;;;;;;;;;;;;;;21;ppm;Unknown;;;;;;;;;;;;;;;;45;ppm;INAA;;;;173;ppm;Unknown;0,33;ppm;INAA;1,5;ppm;INAA;;;;;;;;;;;;;;;;24;ppm;Unknown;69;ppm;Unknown;72;ppm;Unknown;;;;;;;;;;;;;;;;;;;;;;;;;1,9;ppm;INAA;1,9;ppm;INAA;;;;;;;;;;;;;;;;;;
GROSCAMP-W-236256;;GROSSMAN-CAMP;GROSSMAN, 1991;38,526;-78,014;0,001;;;CONTINENTAL_RIFT;;;;"AAS; ICP; INAA; Unknown";WHOLE ROCK;IGNEOUS:VOLCANIC:MAFIC;DIABASE;;;;;;;;;;;;;;;;;11,78;wt%;Unknown;;;;;;;;;;;;;;;;13,15;wt%;Unknown;;;;2,14;wt%;Unknown;;;;;;;;;;;;;;;;;;;;;;;;;;;;;;;81;ppm;Unknown;51;ppm;Unknown;67;ppm;Unknown;;;;56;ppm;Unknown;;;;0,041;ppm;AAS;;;;;;;;;;;;;;;;;;;;;;;;;;;;;;;;;;;;;;;;;;;;;;;;;;;;;;;;;;;;;;;;;;;;;;;;;;;;;;;;;;;;;;;;;;;;;;;;;;;;;;;;;;;;;;;;;;;;;;;;;;;;8,1;ppm;INAA;18;ppm;INAA;;;;9,5;ppm;INAA;2,7;ppm;INAA;0,97;ppm;INAA;;;;0,5;ppm;INAA;;;;;;;;;;;;;1,9;ppm;INAA;0,28;ppm;INAA;;;;;;;;;;;;;;;;;;;;;;;;;0,041;ppm;AAS;;;;;;;;;;;;;129;ppm;Unknown;;;;;;;;;;;;;51;ppm;Unknown;128;ppm;Unknown;0,62;ppm;INAA;67;ppm;Unknown;;;;;;;1,9;ppm;INAA;;;;;;;;;;;;;;;;;;;;;;5;ppm;ICP;81;ppm;Unknown;;;;;;;;;;;;;;;;15;ppm;Unknown;;;;;;;;;;;;;;;;41;ppm;INAA;;;;199;ppm;Unknown;0,43;ppm;INAA;1,7;ppm;INAA;;;;;;;0,32;ppm;INAA;;;;;;;19;ppm;Unknown;56;ppm;Unknown;76;ppm;Unknown;;;;;;;;;;;;;;;;;;;;;;;;;;;;;;;;;;;;;;;;;;;;;;;;
GROSCAMP-W-236257;;GROSSMAN-CAMP;GROSSMAN, 1991;38,526;-78,014;0,001;;;CONTINENTAL_RIFT;;;;"AAS; COL; ICP; INAA; Unknown";WHOLE ROCK;IGNEOUS:VOLCANIC:MAFIC;DIABASE;;;;;;;;;;;;;;;;;12,01;wt%;Unknown;;;;;;;;;;;;;;;;11,33;wt%;Unknown;;;;2,08;wt%;Unknown;;;;0,18;wt%;COL;;;;;;;;;;;;;;;;;;;;;;;;;91;ppm;Unknown;49;ppm;Unknown;97;ppm;Unknown;;;;79;ppm;Unknown;2,1;ppm;INAA;0,065;ppm;AAS;0,02;ppm;INAA;;;;;;;;;;;;;;;;;;;;;;;;;;;;;;;;;;;;;;;;;;;;;;;;;;;;;;;;;;;;;;;;;;;;;;;;;;;;;;;;;;;;;;;;;;;;;;;;;;;;;;;;;;;;;;;;;;;;;;;;;11,2;ppm;INAA;24;ppm;INAA;;;;11;ppm;INAA;3,6;ppm;INAA;1,1;ppm;INAA;;;;0,66;ppm;INAA;;;;;;;;;;;;;2,3;ppm;INAA;0,32;ppm;INAA;;;;0,03;ppm;INAA;0,01;ppm;INAA;;;;;;;;;;;;;;;;0,065;ppm;AAS;;;;2,1;ppm;INAA;9,3;ppm;INAA;;;;110;ppm;Unknown;;;;;;;;;;;;;49;ppm;Unknown;310;ppm;Unknown;0,95;ppm;INAA;97;ppm;Unknown;;;;;;;2,6;ppm;INAA;;;;;;;;;;;;;;;;;;;;;;6,2;ppm;ICP;91;ppm;Unknown;;;;;;;;;;;;;;;;14;ppm;Unknown;;;;;;;;;;0,02;ppm;INAA;;;;39;ppm;INAA;;;;172;ppm;Unknown;0,55;ppm;INAA;2,2;ppm;INAA;;;;;;;0,41;ppm;INAA;;;;;;;29;ppm;Unknown;79;ppm;Unknown;104;ppm;Unknown;;;;;;;;;;;;;;;;;;;;;;;;;2,1;ppm;INAA;2,1;ppm;INAA;;;;;;;;;;;;;;;;;;
GROSCAMP-W-236258;;GROSSMAN-CAMP;GROSSMAN, 1991;38,526;-78,014;0,001;;;CONTINENTAL_RIFT;;;;"AAS; COL; ICP; INAA; Unknown";WHOLE ROCK;IGNEOUS:VOLCANIC:MAFIC;DIABASE;;;;;;;;;;;;;;;;;12,16;wt%;Unknown;;;;;;;;;;;;;;;;11,89;wt%;Unknown;;;;2,12;wt%;Unknown;;;;0,16;wt%;COL;;;;;;;;;;;;;;;;;;;;;;;;;65;ppm;Unknown;46;ppm;Unknown;85;ppm;Unknown;;;;71;ppm;Unknown;3,6;ppm;INAA;0,048;ppm;AAS;;;;;;;;;;;;;;;;;;;;;;;;;;;;;;;;;;;;;;;;;;;;;;;;;;;;;;;;;;;;;;;;;;;;;;;;;;;;;;;;;;;;;;;;;;;;;;;;;;;;;;;;;;;;;;;;;;;;;;;;;;;;11,8;ppm;INAA;25;ppm;INAA;;;;12;ppm;INAA;3,8;ppm;INAA;1,16;ppm;INAA;;;;0,73;ppm;INAA;;;;;;;;;;;;;2,4;ppm;INAA;0,36;ppm;INAA;;;;0,02;ppm;INAA;0,02;ppm;INAA;;;;;;;;;;;;;;;;0,048;ppm;AAS;;;;3,6;ppm;INAA;;;;;;;182;ppm;Unknown;;;;;;;;;;;;;46;ppm;Unknown;264;ppm;Unknown;0,74;ppm;INAA;85;ppm;Unknown;;;;;;;2,8;ppm;INAA;;;;;;;;;;;;;;;;;;;;;;7,4;ppm;ICP;65;ppm;Unknown;;;;;;;;;;;;;;;;27;ppm;Unknown;;;;;;;;;;;;;;;;39;ppm;INAA;;;;215;ppm;Unknown;0,5;ppm;INAA;2,2;ppm;INAA;;;;;;;0,49;ppm;INAA;;;;;;;30;ppm;Unknown;71;ppm;Unknown;107;ppm;Unknown;;;;;;;;;;;;;;;;;;;;;;;;;3,6;ppm;INAA;3,6;ppm;INAA;;;;;;;;;;;;;;;;;;
GROSCAMP-W-236260;;GROSSMAN-CAMP;GROSSMAN, 1991;39,7761;-77,3264;0,001;;;CONTINENTAL_RIFT;;;;"AAS; COL; ICP; INAA; TITR; Unknown";WHOLE ROCK;IGNEOUS:VOLCANIC:MAFIC;DIABASE;;52,6;wt%;COL;1,1;wt%;COL;14,3;wt%;COL;;;;1,9;wt%;Unknown;;;;8,6;wt%;TITR;;;;;;;0,2;wt%;AAS;7,5;wt%;AAS;10,7;wt%;Unknown;;;;2,25;wt%;Unknown;1,1;wt%;AAS;0,14;wt%;COL;;;;;;;;;;0,2;wt%;TITR;0,72;wt%;TITR;;;;;;;;;;92;ppm;Unknown;47;ppm;Unknown;92;ppm;Unknown;;;;80;ppm;Unknown;1,9;ppm;INAA;;;;0,01;ppm;INAA;;;;;;;;;;;;;;;;;;;;;;;;;;;;;;;;;;;;;;;;;;;;;;;;;;;;;;;;;;;;;;;;;;;;;;;;;;;;;;;;;;;;;;;;;;;;;;;;;;;;;;;;;;;;;;;;;;;;;;;;;12;ppm;INAA;23;ppm;INAA;;;;12;ppm;INAA;3,5;ppm;INAA;1,09;ppm;INAA;;;;0,67;ppm;INAA;;;;;;;;;;;;;2,3;ppm;INAA;0,32;ppm;INAA;0,07;ppm;TITR;0,03;ppm;INAA;0,02;ppm;INAA;;;;;;;;;;;;;;;;;;;;;;1,9;ppm;INAA;;;;;;;189;ppm;Unknown;;;;;;;;;;;;;47;ppm;Unknown;275;ppm;Unknown;1,5;ppm;INAA;92;ppm;Unknown;;;;;;;2,6;ppm;INAA;;;;;;;;;;;;;;;;;;;;;;7;ppm;ICP;92;ppm;Unknown;;;;;;;;;;8,3;ppm;Unknown;6,7;ppm;Unknown;32;ppm;Unknown;;;;;;;;;;0,01;ppm;INAA;;;;37;ppm;INAA;;;;203;ppm;Unknown;0,53;ppm;INAA;2,3;ppm;INAA;;;;;;;0,58;ppm;INAA;;;;;;;25;ppm;Unknown;80;ppm;Unknown;105;ppm;Unknown;;;;;;;;;;;;;;;;;;;;;;;;;1,9;ppm;INAA;1,9;ppm;INAA;;;;0,2;wt%;TITR;0,72;wt%;TITR;0,2;wt%;TITR;0,72;wt%;TITR;;;
GROSCAMP-W-236261;;GROSSMAN-CAMP;GROSSMAN, 1991;39,8283;-77,3467;0,001;;;CONTINENTAL_RIFT;;;;"AAS; COL; ICP; INAA; TITR; Unknown";WHOLE ROCK;IGNEOUS:VOLCANIC:MAFIC;DIABASE;;51,8;wt%;COL;3,1;wt%;COL;12,6;wt%;COL;;;;4,5;wt%;Unknown;;;;11,4;wt%;TITR;;;;;;;0,21;wt%;AAS;2,7;wt%;AAS;7,1;wt%;Unknown;;;;2,92;wt%;Unknown;1,7;wt%;AAS;0,29;wt%;COL;;;;;;;;;;0,35;wt%;TITR;1,4;wt%;TITR;;;;;;;;;;8;ppm;Unknown;49;ppm;Unknown;600;ppm;Unknown;;;;138;ppm;Unknown;3,3;ppm;INAA;;;;0,05;ppm;INAA;;;;;;;;;;;;;;;;;;;;;;;;;;;;;;;;;;;;;;;;;;;;;;;;;;;;;;;;;;;;;;;;;;;;;;;;;;;;;;;;;;;;;;;;;;;;;;;;;;;;;;;;;;;;;;;;;;;;;;;;;26,5;ppm;INAA;46;ppm;INAA;;;;27;ppm;INAA;7,9;ppm;INAA;2,6;ppm;INAA;;;;1,6;ppm;INAA;;;;;;;;;;;;;4,8;ppm;INAA;0,73;ppm;INAA;0,01;ppm;TITR;0,04;ppm;INAA;0,02;ppm;INAA;;;;;;;;;;;;;;;;;;;;;;3,3;ppm;INAA;;;;;;;380;ppm;Unknown;;;;;;;;;;;;;49;ppm;Unknown;;;;1,7;ppm;INAA;600;ppm;Unknown;;;;;;;5,2;ppm;INAA;;;;;;;;;;;;;;;;;;;;;;17;ppm;ICP;8;ppm;Unknown;;;;;;;;;;;;;;;;60;ppm;Unknown;;;;;;;;;;0,05;ppm;INAA;;;;41;ppm;INAA;;;;243;ppm;Unknown;1,3;ppm;INAA;4,5;ppm;INAA;;;;;;;0,78;ppm;INAA;;;;;;;65;ppm;Unknown;138;ppm;Unknown;177;ppm;Unknown;;;;;;;;;;;;;;;;;;;;;;;;;3,3;ppm;INAA;3,3;ppm;INAA;;;;0,35;wt%;TITR;1,4;wt%;TITR;0,35;wt%;TITR;1,4;wt%;TITR;;;
GROSCAMP-W-236262;;GROSSMAN-CAMP;GROSSMAN, 1991;39,7494;-77,2828;0,001;;;CONTINENTAL_RIFT;;;;"AAS; COL; ICP; INAA; TITR; Unknown";WHOLE ROCK;IGNEOUS:VOLCANIC:MAFIC;DIABASE;;52,4;wt%;COL;1,2;wt%;COL;15,9;wt%;COL;;;;2,5;wt%;Unknown;;;;8;wt%;TITR;;;;;;;0,17;wt%;AAS;5,4;wt%;AAS;10;wt%;Unknown;;;;2,6;wt%;Unknown;0,85;wt%;AAS;0,18;wt%;COL;;;;;;;;;;0,05;wt%;TITR;1,2;wt%;TITR;;;;;;;;;;65;ppm;Unknown;43;ppm;Unknown;116;ppm;Unknown;;;;77;ppm;Unknown;2,1;ppm;INAA;;;;;;;;;;;;;;;;;;;;;;;;;;;;;;;;;;;;;;;;;;;;;;;;;;;;;;;;;;;;;;;;;;;;;;;;;;;;;;;;;;;;;;;;;;;;;;;;;;;;;;;;;;;;;;;;;;;;;;;;;;;;;;;14,1;ppm;INAA;27;ppm;INAA;;;;14;ppm;INAA;4;ppm;INAA;1,28;ppm;INAA;;;;0,73;ppm;INAA;;;;;;;;;;;;;2,4;ppm;INAA;0,39;ppm;INAA;0,01;ppm;TITR;0;ppm;INAA;0,05;ppm;INAA;;;;;;;;;;;;;;;;;;;;;;2,1;ppm;INAA;;;;;;;178;ppm;Unknown;;;;;;;;;;;;;43;ppm;Unknown;53;ppm;Unknown;1,1;ppm;INAA;116;ppm;Unknown;;;;;;;2,9;ppm;INAA;;;;;;;;;;;;;;;;;;;;;;7,3;ppm;ICP;65;ppm;Unknown;;;;;;;;;;9,2;ppm;Unknown;0,6;ppm;Unknown;39;ppm;Unknown;;;;;;;;;;;;;;;;34;ppm;INAA;;;;220;ppm;Unknown;0,61;ppm;INAA;2,6;ppm;INAA;;;;;;;0,27;ppm;INAA;;;;;;;26;ppm;Unknown;77;ppm;Unknown;112;ppm;Unknown;;;;;;;;;;;;;;;;;;;;;;;;;2,1;ppm;INAA;2,1;ppm;INAA;;;;0,05;wt%;TITR;1,2;wt%;TITR;0,05;wt%;TITR;1,2;wt%;TITR;;;