SAMPLE ID;IGSN;EXPEDITION ID;REFERENCES;LATITUDE;LONGITUDE;LOC PREC;MIN ELEVATION;MAX ELEVATION;TECTONIC SETTING;MIN AGE;AGE;MAX AGE;METHOD;ANALYZED MATERIAL;ROCK TYPE;ROCK NAME;MINERAL;SIO2;SIO2 Units;SIO2 Method;TIO2;TIO2 Units;TIO2 Method;AL2O3;AL2O3 Units;AL2O3 Method;CR2O3;CR2O3 Units;CR2O3 Method;FE2O3;FE2O3 Units;FE2O3 Method;FE2O3T;FE2O3T Units;FE2O3T Method;FEO;FEO Units;FEO Method;FEOT;FEOT Units;FEOT Method;NIO;NIO Units;NIO Method;MNO;MNO Units;MNO Method;MGO;MGO Units;MGO Method;CAO;CAO Units;CAO Method;SRO;SRO Units;SRO Method;NA2O;NA2O Units;NA2O Method;K2O;K2O Units;K2O Method;P2O5;P2O5 Units;P2O5 Method;BAO;BAO Units;BAO Method;LOI;LOI Units;LOI Method;H2O;H2O Units;H2O Method;H2O_M;H2O_M Units;H2O_M Method;H2O_P;H2O_P Units;H2O_P Method;SO3;SO3 Units;SO3 Method;COO;COO Units;COO Method;MN;MN Units;MN Method;NI;NI Units;NI Method;CO;CO Units;CO Method;CU;CU Units;CU Method;CD;CD Units;CD Method;ZN;ZN Units;ZN Method;AS;AS Units;AS Method;AG;AG Units;AG Method;S;S Units;S Method;ZRO2;ZRO2 Units;ZRO2 Method;AL;AL Units;AL Method;CA;CA Units;CA Method;SR87_SR86;SR87_SR86 Units;SR87_SR86 Method;SR87_SR86_INI;SR87_SR86_INI Units;SR87_SR86_INI Method;RB87_SR86;RB87_SR86 Units;RB87_SR86 Method;ND143_ND144;ND143_ND144 Units;ND143_ND144 Method;ND143_ND144_INI;ND143_ND144_INI Units;ND143_ND144_INI Method;SM147_ND144;SM147_ND144 Units;SM147_ND144 Method;E_ND;E_ND Units;E_ND Method;E_ND_INI;E_ND_INI Units;E_ND_INI Method;PB204_PB206;PB204_PB206 Units;PB204_PB206 Method;PB206_PB204;PB206_PB204 Units;PB206_PB204 Method;PB206_PB204_INI;PB206_PB204_INI Units;PB206_PB204_INI Method;PB207_PB204;PB207_PB204 Units;PB207_PB204 Method;PB207_PB204_INI;PB207_PB204_INI Units;PB207_PB204_INI Method;PB207_PB206;PB207_PB206 Units;PB207_PB206 Method;PB208_PB204;PB208_PB204 Units;PB208_PB204 Method;PB208_PB204_INI;PB208_PB204_INI Units;PB208_PB204_INI Method;PB208_PB206;PB208_PB206 Units;PB208_PB206 Method;HF176_HF177;HF176_HF177 Units;HF176_HF177 Method;RE187_OS188;RE187_OS188 Units;RE187_OS188 Method;OS187_OS188;OS187_OS188 Units;OS187_OS188 Method;OS187_OS188_INI;OS187_OS188_INI Units;OS187_OS188_INI Method;G_OS;G_OS Units;G_OS Method;G_OS_INI;G_OS_INI Units;G_OS_INI Method;ND143_ND144_INI;ND143_ND144_INI Units;ND143_ND144_INI Method;PB206_PB204_INI;PB206_PB204_INI Units;PB206_PB204_INI Method;PB207_PB204_INI;PB207_PB204_INI Units;PB207_PB204_INI Method;PB208_PB204_INI;PB208_PB204_INI Units;PB208_PB204_INI Method;SR87_SR86_INI;SR87_SR86_INI Units;SR87_SR86_INI Method;HE;HE Units;HE Method;HE3;HE3 Units;HE3 Method;HE3_HE4_R_RA;HE3_HE4_R_RA Units;HE3_HE4_R_RA Method;AR36;AR36 Units;AR36 Method;AR40;AR40 Units;AR40 Method;AR40_AR36;AR40_AR36 Units;AR40_AR36 Method;NE20;NE20 Units;NE20 Method;NE20_NE22;NE20_NE22 Units;NE20_NE22 Method;NE21_NE22;NE21_NE22 Units;NE21_NE22 Method;LA;LA Units;LA Method;CE;CE Units;CE Method;PR;PR Units;PR Method;ND;ND Units;ND Method;SM;SM Units;SM Method;EU;EU Units;EU Method;GD;GD Units;GD Method;TB;TB Units;TB Method;DY;DY Units;DY Method;HO;HO Units;HO Method;ER;ER Units;ER Method;TM;TM Units;TM Method;YB;YB Units;YB Method;LU;LU Units;LU Method;CO2;CO2 Units;CO2 Method;F;F Units;F Method;CL;CL Units;CL Method;U238_PB204;U238_PB204 Units;U238_PB204 Method;TH230_TH232;TH230_TH232 Units;TH230_TH232 Method;RA226_ACTIVITY;RA226_ACTIVITY Units;RA226_ACTIVITY Method;PB210_RA226;PB210_RA226 Units;PB210_RA226 Method;PB210_ACTIVITY;PB210_ACTIVITY Units;PB210_ACTIVITY Method;AG;AG Units;AG Method;AL;AL Units;AL Method;AS;AS Units;AS Method;AU;AU Units;AU Method;B;B Units;B Method;BA;BA Units;BA Method;BE;BE Units;BE Method;BI;BI Units;BI Method;CA;CA Units;CA Method;CD;CD Units;CD Method;CO;CO Units;CO Method;CR;CR Units;CR Method;CS;CS Units;CS Method;CU;CU Units;CU Method;GA;GA Units;GA Method;GER;GER Units;GER Method;HF;HF Units;HF Method;INDIUM;INDIUM Units;INDIUM Method;IR;IR Units;IR Method;K;K Units;K Method;LI;LI Units;LI Method;MN;MN Units;MN Method;MO;MO Units;MO Method;NA;NA Units;NA Method;NB;NB Units;NB Method;NI;NI Units;NI Method;OS;OS Units;OS Method;P;P Units;P Method;PB;PB Units;PB Method;PD;PD Units;PD Method;PT;PT Units;PT Method;RB;RB Units;RB Method;RE;RE Units;RE Method;RH;RH Units;RH Method;RU;RU Units;RU Method;S;S Units;S Method;SB;SB Units;SB Method;SC;SC Units;SC Method;SN;SN Units;SN Method;SR;SR Units;SR Method;TA;TA Units;TA Method;TH;TH Units;TH Method;TI;TI Units;TI Method;TL;TL Units;TL Method;U;U Units;U Method;V;V Units;V Method;W;W Units;W Method;Y;Y Units;Y Method;ZN;ZN Units;ZN Method;ZR;ZR Units;ZR Method;DELTA_O18;DELTA_O18 Units;DELTA_O18 Method;DELTA_C13;DELTA_C13 Units;DELTA_C13 Method;DELTA_MO98;DELTA_MO98 Units;DELTA_MO98 Method;DELTA_ZN66;DELTA_ZN66 Units;DELTA_ZN66 Method;DELTA_ZN68;DELTA_ZN68 Units;DELTA_ZN68 Method;OS188;OS188 Units;OS188 Method;FE3P_FET;FE3P_FET Units;FE3P_FET Method;TI;TI Units;TI Method;AS;AS Units;AS Method;AS;AS Units;AS Method;GER;GER Units;GER Method;H2O_M;H2O_M Units;H2O_M Method;H2O_P;H2O_P Units;H2O_P Method;H2O_M;H2O_M Units;H2O_M Method;H2O_P;H2O_P Units;H2O_P Method;INDIUM;INDIUM Units;INDIUM Method
GROSCAMP-W-235441;;GROSSMAN-CAMP;GROSSMAN, 1991;40,85;-73,95;0,001;;;CONTINENTAL_RIFT;;;;"AAS; COL; ICP; INAA; TITR; Unknown";WHOLE ROCK;IGNEOUS:PLUTONIC:MAFIC;GABBRO;;50,8;wt%;COL;3,1;wt%;COL;11,4;wt%;COL;;;;3,3;wt%;Unknown;;;;13,5;wt%;TITR;;;;;;;0,17;wt%;AAS;2,9;wt%;AAS;7,1;wt%;Unknown;;;;2,6;wt%;Unknown;1,7;wt%;AAS;0,35;wt%;COL;;;;;;;;;;0,46;wt%;TITR;0,7;wt%;TITR;;;;;;;;;;16;ppm;Unknown;;;;205;ppm;Unknown;;;;108;ppm;Unknown;;;;0,11;ppm;AAS;0,04;ppm;INAA;;;;;;;;;;;;;;;;;;;;;;;;;;;;;;;;;;;;;;;;;;;;;;;;;;;;;;;;;;;;;;;;;;;;;;;;;;;;;;;;;;;;;;;;;;;;;;;;;;;;;;;;;;;;;;;;;;;;;;;;;;;;;;;;;;;;;;;;;;;;;;;;;;;;;;;;;;;;;;;;;;;0,01;ppm;TITR;0,04;ppm;INAA;0,4;ppm;INAA;;;;;;;;;;;;;;;;0,11;ppm;AAS;;;;;;;;;;;;;380;ppm;Unknown;;;;;;;;;;;;;;;;;;;;;;205;ppm;Unknown;;;;;;;;;;;;;;;;;;;;;;;;;;;;;;;16;ppm;ICP;16;ppm;Unknown;;;;;;;;;;14;ppm;Unknown;2,7;ppm;Unknown;65;ppm;Unknown;;;;;;;;;;0,04;ppm;INAA;;;;;;;;;;217;ppm;Unknown;;;;;;;;;;;;;;;;;;;;;;53;ppm;Unknown;108;ppm;Unknown;204;ppm;Unknown;;;;;;;;;;;;;;;;;;;;;;;;;;;;;;;;;;0,46;wt%;TITR;0,7;wt%;TITR;0,46;wt%;TITR;0,7;wt%;TITR;;;
GROSCAMP-W-235442;;GROSSMAN-CAMP;GROSSMAN, 1991;40,85;-73,95;0,001;;;CONTINENTAL_RIFT;;;;"AAS; COL; ICP; INAA; TITR; Unknown";WHOLE ROCK;IGNEOUS:PLUTONIC:MAFIC;GABBRO;;51,5;wt%;COL;3,2;wt%;COL;12,6;wt%;COL;;;;6,8;wt%;Unknown;;;;8,6;wt%;TITR;;;;;;;0,22;wt%;AAS;4;wt%;AAS;8;wt%;Unknown;;;;2,5;wt%;Unknown;1,5;wt%;AAS;0,26;wt%;COL;;;;;;;;;;0,45;wt%;TITR;0,75;wt%;TITR;;;;;;;;;;28;ppm;Unknown;;;;189;ppm;Unknown;;;;141;ppm;Unknown;;;;0,28;ppm;AAS;0,03;ppm;INAA;;;;;;;;;;;;;;;;;;;;;;;;;;;;;;;;;;;;;;;;;;;;;;;;;;;;;;;;;;;;;;;;;;;;;;;;;;;;;;;;;;;;;;;;;;;;;;;;;;;;;;;;;;;;;;;;;;;;;;;;;;;;;;;;;;;;;;;;;;;;;;;;;;;;;;;;;;;;;;;;;;;;;;0,04;ppm;INAA;0,3;ppm;INAA;;;;;;;;;;;;;;;;0,28;ppm;AAS;;;;;;;;;;;;;310;ppm;Unknown;;;;;;;;;;;;;;;;;;;;;;189;ppm;Unknown;;;;;;;;;;;;;;;;;;;;;;;;;;;;;;;13;ppm;ICP;28;ppm;Unknown;;;;;;;;;;13;ppm;Unknown;3,1;ppm;Unknown;47;ppm;Unknown;;;;;;;;;;0,03;ppm;INAA;;;;;;;;;;200;ppm;Unknown;;;;;;;;;;;;;;;;;;;;;;33;ppm;Unknown;141;ppm;Unknown;154;ppm;Unknown;;;;;;;;;;;;;;;;;;;;;;;;;;;;;;;;;;0,45;wt%;TITR;0,75;wt%;TITR;0,45;wt%;TITR;0,75;wt%;TITR;;;
GROSCAMP-W-235443;;GROSSMAN-CAMP;GROSSMAN, 1991;40,85;-73,95;0,001;;;CONTINENTAL_RIFT;;;;"AAS; COL; ICP; INAA; TITR; Unknown";WHOLE ROCK;IGNEOUS:VOLCANIC:FELSIC;GRANOPHYRE;;51,8;wt%;COL;1,5;wt%;COL;16,7;wt%;COL;;;;2,2;wt%;Unknown;;;;8,7;wt%;TITR;;;;;;;0,17;wt%;AAS;3,9;wt%;AAS;8,3;wt%;Unknown;;;;3,1;wt%;Unknown;1,6;wt%;AAS;0,17;wt%;COL;;;;;;;;;;0,39;wt%;TITR;0,94;wt%;TITR;;;;;;;;;;39;ppm;Unknown;;;;181;ppm;Unknown;;;;81;ppm;Unknown;;;;0,19;ppm;AAS;0,02;ppm;INAA;;;;;;;;;;;;;;;;;;;;;;;;;;;;;;;;;;;;;;;;;;;;;;;;;;;;;;;;;;;;;;;;;;;;;;;;;;;;;;;;;;;;;;;;;;;;;;;;;;;;;;;;;;;;;;;;;;;;;;;;;;;;;;;;;;;;;;;;;;;;;;;;;;;;;;;;;;;;;;;;;;;0,04;ppm;TITR;0,04;ppm;INAA;0,23;ppm;INAA;;;;;;;;;;;;;;;;0,19;ppm;AAS;;;;;;;;;;;;;299;ppm;Unknown;;;;;;;;;;;;;;;;;;;;;;181;ppm;Unknown;;;;;;;;;;;;;;;;;;;;;;;;;;;;;;;9,6;ppm;ICP;39;ppm;Unknown;;;;;;;;;;12;ppm;Unknown;4,3;ppm;Unknown;61;ppm;Unknown;;;;;;;;;;0,02;ppm;INAA;;;;;;;;;;275;ppm;Unknown;;;;;;;;;;;;;;;;;;;;;;28;ppm;Unknown;81;ppm;Unknown;133;ppm;Unknown;;;;;;;;;;;;;;;;;;;;;;;;;;;;;;;;;;0,39;wt%;TITR;0,94;wt%;TITR;0,39;wt%;TITR;0,94;wt%;TITR;;;
GROSCAMP-W-235444;;GROSSMAN-CAMP;GROSSMAN, 1991;40,85;-73,95;0,001;;;CONTINENTAL_RIFT;;;;"AAS; COL; ICP; INAA; TITR; Unknown";WHOLE ROCK;IGNEOUS:VOLCANIC:MAFIC;DIABASE;;51,4;wt%;COL;1,2;wt%;COL;16,1;wt%;COL;;;;1,9;wt%;Unknown;;;;8,2;wt%;TITR;;;;;;;0,16;wt%;AAS;5,6;wt%;AAS;9,7;wt%;Unknown;;;;2,5;wt%;Unknown;1,8;wt%;AAS;0,14;wt%;COL;;;;;;;;;;0,37;wt%;TITR;0,86;wt%;TITR;;;;;;;;;;55;ppm;Unknown;;;;115;ppm;Unknown;;;;71;ppm;Unknown;;;;0,25;ppm;AAS;0,04;ppm;INAA;;;;;;;;;;;;;;;;;;;;;;;;;;;;;;;;;;;;;;;;;;;;;;;;;;;;;;;;;;;;;;;;;;;;;;;;;;;;;;;;;;;;;;;;;;;;;;;;;;;;;;;;;;;;;;;;;;;;;;;;;;;;;;;;;;;;;;;;;;;;;;;;;;;;;;;;;;;;;;;;;;;0,03;ppm;TITR;0,03;ppm;INAA;0,03;ppm;INAA;;;;;;;;;;;;;;;;0,25;ppm;AAS;;;;;;;;;;;;;188;ppm;Unknown;;;;;;;;;;;;;;;;;;;;;;115;ppm;Unknown;;;;;;;;;;;;;;;;;;;;;;;;;;;;;;;7,1;ppm;ICP;55;ppm;Unknown;;;;;;;;;;11;ppm;Unknown;5,7;ppm;Unknown;26;ppm;Unknown;;;;;;;;;;0,04;ppm;INAA;;;;;;;;;;219;ppm;Unknown;;;;;;;;;;;;;;;;;;;;;;28;ppm;Unknown;71;ppm;Unknown;110;ppm;Unknown;;;;;;;;;;;;;;;;;;;;;;;;;;;;;;;;;;0,37;wt%;TITR;0,86;wt%;TITR;0,37;wt%;TITR;0,86;wt%;TITR;;;
GROSCAMP-W-235445;;GROSSMAN-CAMP;GROSSMAN, 1991;40,85;-74,0166;0,001;;;CONTINENTAL_RIFT;;;;"AAS; COL; ICP; INAA; TITR; Unknown";WHOLE ROCK;IGNEOUS:VOLCANIC:MAFIC;DIABASE;;51,7;wt%;COL;1,1;wt%;COL;16,4;wt%;COL;;;;1,6;wt%;Unknown;;;;7,9;wt%;TITR;;;;;;;0,16;wt%;AAS;5,9;wt%;AAS;10;wt%;Unknown;;;;2,4;wt%;Unknown;0,86;wt%;AAS;0,16;wt%;COL;;;;;;;;;;0,28;wt%;TITR;0,76;wt%;TITR;;;;;;;;;;58;ppm;Unknown;;;;102;ppm;Unknown;;;;68;ppm;Unknown;;;;0,15;ppm;AAS;0,02;ppm;INAA;;;;;;;;;;;;;;;;;;;;;;;;;;;;;;;;;;;;;;;;;;;;;;;;;;;;;;;;;;;;;;;;;;;;;;;;;;;;;;;;;;;;;;;;;;;;;;;;;;;;;;;;;;;;;;;;;;;;;;;;;;;;;;;;;;;;;;;;;;;;;;;;;;;;;;;;;;;;;;;;;;;0,03;ppm;TITR;0,03;ppm;INAA;0,05;ppm;INAA;;;;;;;;;;;;;;;;0,15;ppm;AAS;;;;;;;;;;;;;198;ppm;Unknown;;;;;;;;;;;;;;;;;;;;;;102;ppm;Unknown;;;;;;;;;;;;;;;;;;;;;;;;;;;;;;;7;ppm;ICP;58;ppm;Unknown;;;;;;;;;;8,3;ppm;Unknown;6,8;ppm;Unknown;30;ppm;Unknown;;;;;;;;;;0,02;ppm;INAA;;;;;;;;;;218;ppm;Unknown;;;;;;;;;;;;;;;;;;;;;;25;ppm;Unknown;68;ppm;Unknown;106;ppm;Unknown;;;;;;;;;;;;;;;;;;;;;;;;;;;;;;;;;;0,28;wt%;TITR;0,76;wt%;TITR;0,28;wt%;TITR;0,76;wt%;TITR;;;
GROSCAMP-W-235446;;GROSSMAN-CAMP;GROSSMAN, 1991;40,85;-73,95;0,001;;;CONTINENTAL_RIFT;;;;"AAS; COL; ICP; INAA; TITR; Unknown";WHOLE ROCK;IGNEOUS:VOLCANIC:MAFIC;DIABASE;;52,1;wt%;COL;0,97;wt%;COL;16,4;wt%;COL;;;;1,5;wt%;Unknown;;;;7,8;wt%;TITR;;;;;;;0,16;wt%;AAS;6;wt%;AAS;10,4;wt%;Unknown;;;;2,3;wt%;Unknown;0,72;wt%;AAS;0,14;wt%;COL;;;;;;;;;;0,28;wt%;TITR;0,73;wt%;TITR;;;;;;;;;;54;ppm;Unknown;;;;103;ppm;Unknown;;;;71;ppm;Unknown;;;;0,052;ppm;AAS;0,04;ppm;INAA;;;;;;;;;;;;;;;;;;;;;;;;;;;;;;;;;;;;;;;;;;;;;;;;;;;;;;;;;;;;;;;;;;;;;;;;;;;;;;;;;;;;;;;;;;;;;;;;;;;;;;;;;;;;;;;;;;;;;;;;;;;;;;;;;;;;;;;;;;;;;;;;;;;;;;;;;;;;;;;;;;;0,04;ppm;TITR;0,03;ppm;INAA;0,02;ppm;INAA;;;;;;;;;;;;;;;;0,052;ppm;AAS;;;;;;;;;;;;;181;ppm;Unknown;;;;;;;;;;;;;;;;;;;;;;103;ppm;Unknown;;;;;;;;;;;;;;;;;;;;;;;;;;;;;;;7,5;ppm;ICP;54;ppm;Unknown;;;;;;;;;;9;ppm;Unknown;9;ppm;Unknown;23;ppm;Unknown;;;;;;;;;;0,04;ppm;INAA;;;;;;;;;;213;ppm;Unknown;;;;;;;;;;;;;;;;;;;;;;22;ppm;Unknown;71;ppm;Unknown;102;ppm;Unknown;;;;;;;;;;;;;;;;;;;;;;;;;;;;;;;;;;0,28;wt%;TITR;0,73;wt%;TITR;0,28;wt%;TITR;0,73;wt%;TITR;;;
GROSCAMP-W-235447;;GROSSMAN-CAMP;GROSSMAN, 1991;40,85;-73,95;0,001;;;CONTINENTAL_RIFT;;;;"AAS; COL; ICP; INAA; TITR; Unknown";WHOLE ROCK;IGNEOUS:VOLCANIC:MAFIC;DIABASE;;51;wt%;COL;0,98;wt%;COL;14,6;wt%;COL;;;;1,3;wt%;Unknown;;;;8;wt%;TITR;;;;;;;0,16;wt%;AAS;7,4;wt%;AAS;11;wt%;Unknown;;;;2;wt%;Unknown;0,72;wt%;AAS;0,12;wt%;COL;;;;;;;;;;0,32;wt%;TITR;0,82;wt%;TITR;;;;;;;;;;80;ppm;Unknown;;;;93;ppm;Unknown;;;;64;ppm;Unknown;;;;0,038;ppm;AAS;0,02;ppm;INAA;;;;;;;;;;;;;;;;;;;;;;;;;;;;;;;;;;;;;;;;;;;;;;;;;;;;;;;;;;;;;;;;;;;;;;;;;;;;;;;;;;;;;;;;;;;;;;;;;;;;;;;;;;;;;;;;;;;;;;;;;;;;;;;;;;;;;;;;;;;;;;;;;;;;;;;;;;;;;;;;;;;0,04;ppm;TITR;0,02;ppm;INAA;0,02;ppm;INAA;;;;;;;;;;;;;;;;0,038;ppm;AAS;;;;;;;;;;;;;151;ppm;Unknown;;;;;;;;;;;;;;;;;;;;;;93;ppm;Unknown;;;;;;;;;;;;;;;;;;;;;;;;;;;;;;;6,7;ppm;ICP;80;ppm;Unknown;;;;;;;;;;8,3;ppm;Unknown;15;ppm;Unknown;21;ppm;Unknown;;;;0,7;ppm;Unknown;;;;0,02;ppm;INAA;;;;;;;;;;187;ppm;Unknown;;;;;;;;;;;;;;;;;;;;;;28;ppm;Unknown;64;ppm;Unknown;90;ppm;Unknown;;;;;;;;;;;;;;;;;;;;;;;;;;;;;;;;;;0,32;wt%;TITR;0,82;wt%;TITR;0,32;wt%;TITR;0,82;wt%;TITR;;;
GROSCAMP-W-235448;;GROSSMAN-CAMP;GROSSMAN, 1991;40,85;-73,95;0,001;;;CONTINENTAL_RIFT;;;;"AAS; COL; ICP; INAA; TITR; Unknown";WHOLE ROCK;IGNEOUS:VOLCANIC:MAFIC;DIABASE;;51,6;wt%;COL;0,88;wt%;COL;14,4;wt%;COL;;;;1,1;wt%;Unknown;;;;7,8;wt%;TITR;;;;;;;0,16;wt%;AAS;8;wt%;AAS;11,1;wt%;Unknown;;;;2;wt%;Unknown;0,58;wt%;AAS;0,15;wt%;COL;;;;;;;;;;0,27;wt%;TITR;0,76;wt%;TITR;;;;;;;;;;97;ppm;Unknown;;;;89;ppm;Unknown;;;;72;ppm;Unknown;;;;0,03;ppm;AAS;0,04;ppm;INAA;;;;;;;;;;;;;;;;;;;;;;;;;;;;;;;;;;;;;;;;;;;;;;;;;;;;;;;;;;;;;;;;;;;;;;;;;;;;;;;;;;;;;;;;;;;;;;;;;;;;;;;;;;;;;;;;;;;;;;;;;;;;;;;;;;;;;;;;;;;;;;;;;;;;;;;;;;;;;;;;;;;0,03;ppm;TITR;0,02;ppm;INAA;0,02;ppm;INAA;;;;;;;;;;;;;;;;0,03;ppm;AAS;;;;;;;;;;;;;147;ppm;Unknown;;;;;;;;;;;;;;;;;;;;;;89;ppm;Unknown;;;;;;;;;;;;;;;;;;;;;;;;;;;;;;;6;ppm;ICP;97;ppm;Unknown;;;;;;;;;;7,1;ppm;Unknown;14;ppm;Unknown;21;ppm;Unknown;;;;;;;;;;0,04;ppm;INAA;;;;;;;;;;187;ppm;Unknown;;;;;;;;;;;;;;;;;;;;;;23;ppm;Unknown;72;ppm;Unknown;84;ppm;Unknown;;;;;;;;;;;;;;;;;;;;;;;;;;;;;;;;;;0,27;wt%;TITR;0,76;wt%;TITR;0,27;wt%;TITR;0,76;wt%;TITR;;;
GROSCAMP-W-235449;;GROSSMAN-CAMP;GROSSMAN, 1991;40,85;-73,95;0,001;;;CONTINENTAL_RIFT;;;;"AAS; ICP; Unknown";WHOLE ROCK;IGNEOUS:PLUTONIC:MAFIC;GABBRO;;;;;;;;;;;;;;;;;;;;;;;;;;;;;;;;;;;;;;;;;;;;;;;;;;;;;;;;;;;;;;;;;;;;;;;;;;109;ppm;Unknown;;;;71;ppm;Unknown;;;;66;ppm;Unknown;;;;0,038;ppm;AAS;;;;;;;;;;;;;;;;;;;;;;;;;;;;;;;;;;;;;;;;;;;;;;;;;;;;;;;;;;;;;;;;;;;;;;;;;;;;;;;;;;;;;;;;;;;;;;;;;;;;;;;;;;;;;;;;;;;;;;;;;;;;;;;;;;;;;;;;;;;;;;;;;;;;;;;;;;;;;;;;;;;;;;;;;;;;;;;;;;;;;;;;;;;;;;0,038;ppm;AAS;;;;;;;;;;;;;190;ppm;Unknown;;;;;;;;;;;;;;;;;;;;;;71;ppm;Unknown;;;;;;;;;;;;;;;;;;;;;;;;;;;;;;;5,7;ppm;ICP;109;ppm;Unknown;;;;;;;;;;6,5;ppm;Unknown;18;ppm;Unknown;40;ppm;Unknown;;;;;;;;;;;;;;;;;;;;;;186;ppm;Unknown;;;;;;;;;;;;;;;;;;;;;;21;ppm;Unknown;66;ppm;Unknown;78;ppm;Unknown;;;;;;;;;;;;;;;;;;;;;;;;;;;;;;;;;;;;;;;;;;;;;;;;
GROSCAMP-W-235450;;GROSSMAN-CAMP;GROSSMAN, 1991;40,85;-73,95;0,001;;;CONTINENTAL_RIFT;;;;"AAS; COL; ICP; INAA; TITR; Unknown";WHOLE ROCK;IGNEOUS:VOLCANIC:MAFIC;DIABASE;;52;wt%;COL;0,99;wt%;COL;16;wt%;COL;;;;1,7;wt%;Unknown;;;;7,7;wt%;TITR;;;;;;;0,15;wt%;AAS;5,5;wt%;AAS;7,8;wt%;Unknown;;;;2,5;wt%;Unknown;2,3;wt%;AAS;0,17;wt%;COL;;;;;;;;;;0,4;wt%;TITR;1,4;wt%;TITR;;;;;;;;;;51;ppm;Unknown;;;;93;ppm;Unknown;;;;71;ppm;Unknown;;;;0,07;ppm;AAS;0,03;ppm;INAA;;;;;;;;;;;;;;;;;;;;;;;;;;;;;;;;;;;;;;;;;;;;;;;;;;;;;;;;;;;;;;;;;;;;;;;;;;;;;;;;;;;;;;;;;;;;;;;;;;;;;;;;;;;;;;;;;;;;;;;;;;;;;;;;;;;;;;;;;;;;;;;;;;;;;;;;;;;;;;;;;;;0,03;ppm;TITR;0,03;ppm;INAA;0,02;ppm;INAA;;;;;;;;;;;;;;;;0,07;ppm;AAS;;;;;;;;;;;;;310;ppm;Unknown;;;;;;;;;;;;;;;;;;;;;;93;ppm;Unknown;;;;;;;;;;;;;;;;;;;;;;;;;;;;;;;8,1;ppm;ICP;51;ppm;Unknown;;;;;;;;;;10;ppm;Unknown;8,2;ppm;Unknown;93;ppm;Unknown;;;;;;;;;;0,03;ppm;INAA;;;;;;;;;;380;ppm;Unknown;;;;;;;;;;;;;;;;;;;;;;22;ppm;Unknown;71;ppm;Unknown;107;ppm;Unknown;;;;;;;;;;;;;;;;;;;;;;;;;;;;;;;;;;0,4;wt%;TITR;1,4;wt%;TITR;0,4;wt%;TITR;1,4;wt%;TITR;;;
GROSCAMP-W-235451;;GROSSMAN-CAMP;GROSSMAN, 1991;40,85;-73,95;0,001;;;CONTINENTAL_RIFT;;;;"AAS; COL; ICP; INAA; TITR; Unknown";WHOLE ROCK;IGNEOUS:VOLCANIC:MAFIC;DIABASE;;50,7;wt%;COL;1,1;wt%;COL;13,7;wt%;COL;;;;1,3;wt%;Unknown;;;;8,6;wt%;TITR;;;;;;;0,17;wt%;AAS;7,3;wt%;AAS;10,3;wt%;Unknown;;;;2,3;wt%;Unknown;0,57;wt%;AAS;0,13;wt%;COL;;;;;;;;;;0,16;wt%;TITR;0,64;wt%;TITR;;;;;;;;;;101;ppm;Unknown;;;;102;ppm;Unknown;;;;82;ppm;Unknown;;;;0,055;ppm;AAS;0,03;ppm;INAA;;;;;;;;;;;;;;;;;;;;;;;;;;;;;;;;;;;;;;;;;;;;;;;;;;;;;;;;;;;;;;;;;;;;;;;;;;;;;;;;;;;;;;;;;;;;;;;;;;;;;;;;;;;;;;;;;;;;;;;;;;;;;;;;;;;;;;;;;;;;;;;;;;;;;;;;;;;;;;;;;;;0,04;ppm;TITR;0,03;ppm;INAA;0,08;ppm;INAA;;;;;;;;;;;;;;;;0,055;ppm;AAS;;;;;;;;;;;;;144;ppm;Unknown;;;;;;;;;;;;;;;;;;;;;;102;ppm;Unknown;;;;;;;;;;;;;;;;;;;;;;;;;;;;;;;7,3;ppm;ICP;101;ppm;Unknown;;;;;;;;;;8,2;ppm;Unknown;12;ppm;Unknown;29;ppm;Unknown;;;;;;;;;;0,03;ppm;INAA;;;;;;;;;;197;ppm;Unknown;;;;;;;;;;;;;;;;;;;;;;27;ppm;Unknown;82;ppm;Unknown;105;ppm;Unknown;;;;;;;;;;;;;;;;;;;;;;;;;;;;;;;;;;0,16;wt%;TITR;0,64;wt%;TITR;0,16;wt%;TITR;0,64;wt%;TITR;;;
GROSCAMP-W-235452;;GROSSMAN-CAMP;GROSSMAN, 1991;40,85;-73,95;0,001;;;CONTINENTAL_RIFT;;;;"AAS; COL; ICP; INAA; TITR; Unknown";WHOLE ROCK;IGNEOUS:VOLCANIC:MAFIC;DIABASE;;51,7;wt%;COL;1,1;wt%;COL;14,5;wt%;COL;;;;2,3;wt%;Unknown;;;;8,6;wt%;TITR;;;;;;;0,18;wt%;AAS;7,3;wt%;AAS;10;wt%;Unknown;;;;2;wt%;Unknown;0,53;wt%;AAS;0,2;wt%;COL;;;;;;;;;;0,19;wt%;TITR;0,6;wt%;TITR;;;;;;;;;;79;ppm;Unknown;;;;96;ppm;Unknown;;;;75;ppm;Unknown;;;;0,11;ppm;AAS;0,02;ppm;INAA;;;;;;;;;;;;;;;;;;;;;;;;;;;;;;;;;;;;;;;;;;;;;;;;;;;;;;;;;;;;;;;;;;;;;;;;;;;;;;;;;;;;;;;;;;;;;;;;;;;;;;;;;;;;;;;;;;;;;;;;;;;;;;;;;;;;;;;;;;;;;;;;;;;;;;;;;;;;;;;;;;;0,04;ppm;TITR;0,03;ppm;INAA;0,01;ppm;INAA;;;;;;;;;;;;;;;;0,11;ppm;AAS;;;;;;;;;;;;;165;ppm;Unknown;;;;;;;;;;;;;;;;;;;;;;96;ppm;Unknown;;;;;;;;;;;;;;;;;;;;;;;;;;;;;;;8;ppm;ICP;79;ppm;Unknown;;;;;;;;;;9,4;ppm;Unknown;12;ppm;Unknown;21;ppm;Unknown;;;;1;ppm;Unknown;;;;0,02;ppm;INAA;;;;;;;;;;189;ppm;Unknown;;;;;;;;;;;;;;;;;;;;;;22;ppm;Unknown;75;ppm;Unknown;100;ppm;Unknown;;;;;;;;;;;;;;;;;;;;;;;;;;;;;;;;;;0,19;wt%;TITR;0,6;wt%;TITR;0,19;wt%;TITR;0,6;wt%;TITR;;;
GROSCAMP-W-235455;;GROSSMAN-CAMP;GROSSMAN, 1991;40,7667;-74,0166;0,001;;;CONTINENTAL_RIFT;;;;"AAS; COL; ICP; INAA; TITR; Unknown";WHOLE ROCK;IGNEOUS:PLUTONIC:MAFIC;GABBRO;;53,8;wt%;COL;1,5;wt%;COL;14,4;wt%;COL;;;;2,2;wt%;Unknown;;;;9,5;wt%;TITR;;;;;;;0,18;wt%;AAS;4,8;wt%;AAS;8,9;wt%;Unknown;;;;2,6;wt%;Unknown;1;wt%;AAS;0,2;wt%;COL;;;;;;;;;;0,2;wt%;TITR;0,75;wt%;TITR;;;;;;;;;;34;ppm;Unknown;;;;145;ppm;Unknown;;;;74;ppm;Unknown;;;;0,053;ppm;AAS;0,03;ppm;INAA;;;;;;;;;;;;;;;;;;;;;;;;;;;;;;;;;;;;;;;;;;;;;;;;;;;;;;;;;;;;;;;;;;;;;;;;;;;;;;;;;;;;;;;;;;;;;;;;;;;;;;;;;;;;;;;;;;;;;;;;;;;;;;;;;;;;;;;;;;;;;;;;;;;;;;;;;;;;;;;;;;;;;;0,04;ppm;INAA;0,03;ppm;INAA;;;;;;;;;;;;;;;;0,053;ppm;AAS;;;;;;;;;;;;;254;ppm;Unknown;;;;;;;;;;;;;;;;;;;;;;145;ppm;Unknown;;;;;;;;;;;;;;;;;;;;;;;;;;;;;;;12;ppm;ICP;34;ppm;Unknown;;;;;;;;;;11;ppm;Unknown;2,6;ppm;Unknown;29;ppm;Unknown;;;;;;;;;;0,03;ppm;INAA;;;;;;;;;;222;ppm;Unknown;;;;;;;;;;;;;;;;;;;;;;27;ppm;Unknown;74;ppm;Unknown;137;ppm;Unknown;;;;;;;;;;;;;;;;;;;;;;;;;;;;;;;;;;0,2;wt%;TITR;0,75;wt%;TITR;0,2;wt%;TITR;0,75;wt%;TITR;;;
GROSCAMP-W-246937;;GROSSMAN-CAMP;GROSSMAN, 1991;38,526;-78,014;0,001;;;CONTINENTAL_RIFT;;;;"ICP; ICPMS; Unknown";WHOLE ROCK;IGNEOUS:VOLCANIC:MAFIC;DIABASE;;;;;;;;;;;;;;;;;;;;;;;;;;;;;;;;;;;;;;;;;;;;;;;;;;;;;;;;;;;;;;;;;;;;;;;;;;25;ppm;Unknown;40;ppm;Unknown;210;ppm;Unknown;;;;;;;;;;;;;;;;;;;;;;;;;;;;;;;;;;;;;;;;;;;;;;;;;;;;;;;;;;;;;;;;;;;;;;;;;;;;;;;;;;;;;;;;;;;;;;;;;;;;;;;;;;;;;;;;;;;;;;;;;;;;;;;;;;;;;;;;;;;;;;;;;;;;;;;;;;;;;;;;;;;;;;;;;;;;;;;;;;;;;;;;;;;;;;;;;;;;;;;;;;;;;;;;;;;;;;;;;;;;;;;;;;;;;;;;40;ppm;Unknown;;;;;;;210;ppm;Unknown;;;;;;;;;;;;;;;;;;;;;;;;;;;;;;;;;;25;ppm;Unknown;;;;;;;;;;36;ppm;Unknown;6,4;ppm;Unknown;;;;;;;;;;0,6;ppm;ICPMS;;;;;;;;;;;;;;;;;;;;;;;;;;;;;;;340;ppm;ICP;;;;;;;;;;;;;;;;;;;;;;;;;;;;;;;;;;;;;;;;;;;;;;;;;;;;;;;;;;;;