SAMPLE ID;IGSN;EXPEDITION ID;REFERENCES;LATITUDE;LONGITUDE;LOC PREC;MIN ELEVATION;MAX ELEVATION;TECTONIC SETTING;MIN AGE;AGE;MAX AGE;METHOD;ANALYZED MATERIAL;ROCK TYPE;ROCK NAME;MINERAL;SIO2;SIO2 Units;SIO2 Method;TIO2;TIO2 Units;TIO2 Method;AL2O3;AL2O3 Units;AL2O3 Method;CR2O3;CR2O3 Units;CR2O3 Method;FE2O3;FE2O3 Units;FE2O3 Method;FE2O3T;FE2O3T Units;FE2O3T Method;FEO;FEO Units;FEO Method;FEOT;FEOT Units;FEOT Method;NIO;NIO Units;NIO Method;MNO;MNO Units;MNO Method;MGO;MGO Units;MGO Method;CAO;CAO Units;CAO Method;SRO;SRO Units;SRO Method;NA2O;NA2O Units;NA2O Method;K2O;K2O Units;K2O Method;P2O5;P2O5 Units;P2O5 Method;BAO;BAO Units;BAO Method;LOI;LOI Units;LOI Method;H2O;H2O Units;H2O Method;H2O_M;H2O_M Units;H2O_M Method;H2O_P;H2O_P Units;H2O_P Method;SO3;SO3 Units;SO3 Method;COO;COO Units;COO Method;MN;MN Units;MN Method;NI;NI Units;NI Method;CO;CO Units;CO Method;CU;CU Units;CU Method;CD;CD Units;CD Method;ZN;ZN Units;ZN Method;AS;AS Units;AS Method;AG;AG Units;AG Method;S;S Units;S Method;ZRO2;ZRO2 Units;ZRO2 Method;AL;AL Units;AL Method;CA;CA Units;CA Method;SR87_SR86;SR87_SR86 Units;SR87_SR86 Method;SR87_SR86_INI;SR87_SR86_INI Units;SR87_SR86_INI Method;RB87_SR86;RB87_SR86 Units;RB87_SR86 Method;ND143_ND144;ND143_ND144 Units;ND143_ND144 Method;ND143_ND144_INI;ND143_ND144_INI Units;ND143_ND144_INI Method;SM147_ND144;SM147_ND144 Units;SM147_ND144 Method;E_ND;E_ND Units;E_ND Method;E_ND_INI;E_ND_INI Units;E_ND_INI Method;PB204_PB206;PB204_PB206 Units;PB204_PB206 Method;PB206_PB204;PB206_PB204 Units;PB206_PB204 Method;PB206_PB204_INI;PB206_PB204_INI Units;PB206_PB204_INI Method;PB207_PB204;PB207_PB204 Units;PB207_PB204 Method;PB207_PB204_INI;PB207_PB204_INI Units;PB207_PB204_INI Method;PB207_PB206;PB207_PB206 Units;PB207_PB206 Method;PB208_PB204;PB208_PB204 Units;PB208_PB204 Method;PB208_PB204_INI;PB208_PB204_INI Units;PB208_PB204_INI Method;PB208_PB206;PB208_PB206 Units;PB208_PB206 Method;HF176_HF177;HF176_HF177 Units;HF176_HF177 Method;RE187_OS188;RE187_OS188 Units;RE187_OS188 Method;OS187_OS188;OS187_OS188 Units;OS187_OS188 Method;OS187_OS188_INI;OS187_OS188_INI Units;OS187_OS188_INI Method;G_OS;G_OS Units;G_OS Method;G_OS_INI;G_OS_INI Units;G_OS_INI Method;ND143_ND144_INI;ND143_ND144_INI Units;ND143_ND144_INI Method;PB206_PB204_INI;PB206_PB204_INI Units;PB206_PB204_INI Method;PB207_PB204_INI;PB207_PB204_INI Units;PB207_PB204_INI Method;PB208_PB204_INI;PB208_PB204_INI Units;PB208_PB204_INI Method;SR87_SR86_INI;SR87_SR86_INI Units;SR87_SR86_INI Method;HE;HE Units;HE Method;HE3;HE3 Units;HE3 Method;HE3_HE4_R_RA;HE3_HE4_R_RA Units;HE3_HE4_R_RA Method;AR36;AR36 Units;AR36 Method;AR40;AR40 Units;AR40 Method;AR40_AR36;AR40_AR36 Units;AR40_AR36 Method;NE20;NE20 Units;NE20 Method;NE20_NE22;NE20_NE22 Units;NE20_NE22 Method;NE21_NE22;NE21_NE22 Units;NE21_NE22 Method;LA;LA Units;LA Method;CE;CE Units;CE Method;PR;PR Units;PR Method;ND;ND Units;ND Method;SM;SM Units;SM Method;EU;EU Units;EU Method;GD;GD Units;GD Method;TB;TB Units;TB Method;DY;DY Units;DY Method;HO;HO Units;HO Method;ER;ER Units;ER Method;TM;TM Units;TM Method;YB;YB Units;YB Method;LU;LU Units;LU Method;CO2;CO2 Units;CO2 Method;F;F Units;F Method;CL;CL Units;CL Method;U238_PB204;U238_PB204 Units;U238_PB204 Method;TH230_TH232;TH230_TH232 Units;TH230_TH232 Method;RA226_ACTIVITY;RA226_ACTIVITY Units;RA226_ACTIVITY Method;PB210_RA226;PB210_RA226 Units;PB210_RA226 Method;PB210_ACTIVITY;PB210_ACTIVITY Units;PB210_ACTIVITY Method;AG;AG Units;AG Method;AL;AL Units;AL Method;AS;AS Units;AS Method;AU;AU Units;AU Method;B;B Units;B Method;BA;BA Units;BA Method;BE;BE Units;BE Method;BI;BI Units;BI Method;CA;CA Units;CA Method;CD;CD Units;CD Method;CO;CO Units;CO Method;CR;CR Units;CR Method;CS;CS Units;CS Method;CU;CU Units;CU Method;GA;GA Units;GA Method;GER;GER Units;GER Method;HF;HF Units;HF Method;INDIUM;INDIUM Units;INDIUM Method;IR;IR Units;IR Method;K;K Units;K Method;LI;LI Units;LI Method;MN;MN Units;MN Method;MO;MO Units;MO Method;NA;NA Units;NA Method;NB;NB Units;NB Method;NI;NI Units;NI Method;OS;OS Units;OS Method;P;P Units;P Method;PB;PB Units;PB Method;PD;PD Units;PD Method;PT;PT Units;PT Method;RB;RB Units;RB Method;RE;RE Units;RE Method;RH;RH Units;RH Method;RU;RU Units;RU Method;S;S Units;S Method;SB;SB Units;SB Method;SC;SC Units;SC Method;SN;SN Units;SN Method;SR;SR Units;SR Method;TA;TA Units;TA Method;TH;TH Units;TH Method;TI;TI Units;TI Method;TL;TL Units;TL Method;U;U Units;U Method;V;V Units;V Method;W;W Units;W Method;Y;Y Units;Y Method;ZN;ZN Units;ZN Method;ZR;ZR Units;ZR Method;DELTA_O18;DELTA_O18 Units;DELTA_O18 Method;DELTA_C13;DELTA_C13 Units;DELTA_C13 Method;DELTA_MO98;DELTA_MO98 Units;DELTA_MO98 Method;DELTA_ZN66;DELTA_ZN66 Units;DELTA_ZN66 Method;DELTA_ZN68;DELTA_ZN68 Units;DELTA_ZN68 Method;OS188;OS188 Units;OS188 Method;FE3P_FET;FE3P_FET Units;FE3P_FET Method;TI;TI Units;TI Method;AS;AS Units;AS Method;AS;AS Units;AS Method;GER;GER Units;GER Method;H2O_M;H2O_M Units;H2O_M Method;H2O_P;H2O_P Units;H2O_P Method;H2O_M;H2O_M Units;H2O_M Method;H2O_P;H2O_P Units;H2O_P Method;INDIUM;INDIUM Units;INDIUM Method
GROSCAMP-W-232405;;GROSSMAN-CAMP;GROSSMAN, 1991;36,061;-78,968;0,001;;;CONTINENTAL_RIFT;;;;"AAS; COL; ES; INAA; TITR; Unknown";WHOLE ROCK;IGNEOUS:VOLCANIC:MAFIC;DIABASE;;46,7;wt%;COL;0,47;wt%;COL;18,5;wt%;COL;;;;1,6;wt%;Unknown;;;;7,6;wt%;TITR;;;;;;;0,15;wt%;AAS;11;wt%;AAS;10,9;wt%;Unknown;;;;1,89;wt%;Unknown;0,24;wt%;AAS;0,08;wt%;COL;;;;;;;;;;0,2;wt%;TITR;0,62;wt%;TITR;;;;;;;;;;300;ppm;Unknown;64;ppm;Unknown;83;ppm;Unknown;;;;75;ppm;Unknown;;;;;;;0,1;ppm;INAA;;;;;;;;;;;;;;;;;;;;;;;;;;;;;;;;;;;;;;;;;;;;;;;;;;;;;;;;;;;;;;;;;;;;;;;;;;;;;;;;;;;;;;;;;;;;;;;;;;;;;;;;;;;;;;;;;;;;;;;;;3,8;ppm;INAA;8,1;ppm;INAA;;;;5,9;ppm;INAA;1,45;ppm;INAA;0,57;ppm;INAA;;;;0,41;ppm;INAA;;;;;;;;;;;;;1,9;ppm;INAA;0,29;ppm;INAA;0,01;ppm;TITR;;;;;;;;;;;;;;;;;;;;;;;;;;;;;;;;;;2;ppm;ES;100;ppm;Unknown;;;;;;;;;;;;;64;ppm;Unknown;370;ppm;Unknown;;;;83;ppm;Unknown;;;;;;;1;ppm;INAA;;;;;;;;;;;;;;;;;;;;;;;;;300;ppm;Unknown;;;;;;;;;;5;ppm;Unknown;9,8;ppm;Unknown;5;ppm;Unknown;;;;;;;;;;0,1;ppm;INAA;;;;29,7;ppm;INAA;;;;146;ppm;Unknown;0,095;ppm;INAA;0,3;ppm;INAA;;;;;;;0,1;ppm;INAA;;;;;;;19;ppm;Unknown;75;ppm;Unknown;43;ppm;Unknown;;;;;;;;;;;;;;;;;;;;;;;;;;;;;;;;;;0,2;wt%;TITR;0,62;wt%;TITR;0,2;wt%;TITR;0,62;wt%;TITR;;;
GROSCAMP-W-232407;;GROSSMAN-CAMP;GROSSMAN, 1991;36,061;-78,968;0,001;;;CONTINENTAL_RIFT;;;;"AAS; COL; ES; ICP; INAA; TITR; Unknown";WHOLE ROCK;IGNEOUS:VOLCANIC:FELSIC;GRANOPHYRE;;50,1;wt%;COL;0,96;wt%;COL;17,1;wt%;COL;;;;3;wt%;Unknown;;;;7,1;wt%;TITR;;;;;;;0,16;wt%;AAS;5,4;wt%;AAS;11,1;wt%;Unknown;;;;2,83;wt%;Unknown;0,51;wt%;AAS;0,15;wt%;COL;;;;;;;;;;0,44;wt%;TITR;0,86;wt%;TITR;;;;;;;;;;62;ppm;Unknown;40;ppm;Unknown;120;ppm;Unknown;;;;90;ppm;Unknown;;;;;;;0,2;ppm;INAA;;;;;;;;;;;;;;;;;;;;;;;;;;;;;;;;;;;;;;;;;;;;;;;;;;;;;;;;;;;;;;;;;;;;;;;;;;;;;;;;;;;;;;;;;;;;;;;;;;;;;;;;;;;;;;;;;;;;;;;;;7,1;ppm;INAA;15;ppm;INAA;;;;8,1;ppm;INAA;2,68;ppm;INAA;1,01;ppm;INAA;;;;0,65;ppm;INAA;;;;;;;;;;;;;3,7;ppm;INAA;0,57;ppm;INAA;0,01;ppm;TITR;;;;;;;;;;;;;;;;;;;;;;;;;;;;;;;;;;2;ppm;ES;193;ppm;Unknown;;;;;;;;;;;;;40;ppm;Unknown;115;ppm;Unknown;;;;120;ppm;Unknown;;;;;;;1,7;ppm;INAA;;;;;;;;;;;;;;;;;;;;;;2,1;ppm;ICP;62;ppm;Unknown;;;;;;;;;;1,1;ppm;Unknown;1,1;ppm;Unknown;9;ppm;Unknown;;;;;;;;;;0,2;ppm;INAA;0,56;ppm;INAA;49;ppm;INAA;;;;185;ppm;Unknown;0,23;ppm;INAA;0,41;ppm;INAA;;;;;;;;;;;;;;;;32;ppm;Unknown;90;ppm;Unknown;77;ppm;Unknown;;;;;;;;;;;;;;;;;;;;;;;;;;;;;;;;;;0,44;wt%;TITR;0,86;wt%;TITR;0,44;wt%;TITR;0,86;wt%;TITR;;;
GROSCAMP-W-232408;;GROSSMAN-CAMP;GROSSMAN, 1991;36,061;-78,968;0,001;;;CONTINENTAL_RIFT;;;;"AAS; COL; ES; INAA; TITR; Unknown";WHOLE ROCK;IGNEOUS:VOLCANIC:MAFIC;DIABASE;;47,7;wt%;COL;0,62;wt%;COL;18,1;wt%;COL;;;;2;wt%;Unknown;;;;7,5;wt%;TITR;;;;;;;0,15;wt%;AAS;9,9;wt%;AAS;11,3;wt%;Unknown;;;;2,02;wt%;Unknown;0,28;wt%;AAS;0,1;wt%;COL;;;;;;;;;;0,37;wt%;TITR;0,45;wt%;TITR;;;;;;;;;;230;ppm;Unknown;58;ppm;Unknown;98;ppm;Unknown;;;;78;ppm;Unknown;;;;;;;0,12;ppm;INAA;;;;;;;;;;;;;;;;;;;;;;;;;;;;;;;;;;;;;;;;;;;;;;;;;;;;;;;;;;;;;;;;;;;;;;;;;;;;;;;;;;;;;;;;;;;;;;;;;;;;;;;;;;;;;;;;;;;;;;;;;5;ppm;INAA;11;ppm;INAA;;;;;;;1,85;ppm;INAA;0,7;ppm;INAA;;;;0,53;ppm;INAA;;;;;;;;;;;;;2,5;ppm;INAA;0,4;ppm;INAA;0,01;ppm;TITR;;;;;;;;;;;;;;;;;;;;;;;;;;;;;;;;;;2;ppm;ES;124;ppm;Unknown;;;;;;;;;;;;;58;ppm;Unknown;340;ppm;Unknown;0,5;ppm;INAA;98;ppm;Unknown;;;;;;;1,2;ppm;INAA;;;;;;;;;;;;;;;;;;;;;;;;;230;ppm;Unknown;;;;;;;;;;3,6;ppm;Unknown;9,4;ppm;Unknown;2;ppm;Unknown;;;;;;;;;;0,12;ppm;INAA;;;;36;ppm;INAA;;;;155;ppm;Unknown;0,13;ppm;INAA;;;;;;;;;;;;;;;;;;;24;ppm;Unknown;78;ppm;Unknown;55;ppm;Unknown;;;;;;;;;;;;;;;;;;;;;;;;;;;;;;;;;;0,37;wt%;TITR;0,45;wt%;TITR;0,37;wt%;TITR;0,45;wt%;TITR;;;
GROSCAMP-W-232409;;GROSSMAN-CAMP;GROSSMAN, 1991;36,061;-78,968;0,001;;;CONTINENTAL_RIFT;;;;"AAS; COL; ES; INAA; TITR; Unknown";WHOLE ROCK;IGNEOUS:VOLCANIC:MAFIC;DIABASE;;47,3;wt%;COL;0,55;wt%;COL;17,8;wt%;COL;;;;2,5;wt%;Unknown;;;;7,2;wt%;TITR;;;;;;;0,15;wt%;AAS;10,3;wt%;AAS;10,8;wt%;Unknown;;;;1,89;wt%;Unknown;0,19;wt%;AAS;0,09;wt%;COL;;;;;;;;;;0,43;wt%;TITR;1,2;wt%;TITR;;;;;;;;;;260;ppm;Unknown;60;ppm;Unknown;100;ppm;Unknown;;;;76;ppm;Unknown;;;;;;;0,07;ppm;INAA;;;;;;;;;;;;;;;;;;;;;;;;;;;;;;;;;;;;;;;;;;;;;;;;;;;;;;;;;;;;;;;;;;;;;;;;;;;;;;;;;;;;;;;;;;;;;;;;;;;;;;;;;;;;;;;;;;;;;;;;;4,5;ppm;INAA;9,8;ppm;INAA;;;;5,1;ppm;INAA;1,69;ppm;INAA;0,65;ppm;INAA;;;;0,47;ppm;INAA;;;;;;;;;;;;;2,4;ppm;INAA;0,38;ppm;INAA;0,01;ppm;TITR;;;;;;;;;;;;;;;;;;;;;;;;;;;;;;;;;;2;ppm;ES;134;ppm;Unknown;;;;;;;;;;;;;60;ppm;Unknown;350;ppm;Unknown;0,63;ppm;INAA;100;ppm;Unknown;;;;;;;1,2;ppm;INAA;;;;;;;;;;;;;;;;;;;;;;;;;260;ppm;Unknown;;;;;;;;;;0,9;ppm;Unknown;8,4;ppm;Unknown;9;ppm;Unknown;;;;;;;;;;0,07;ppm;INAA;;;;35;ppm;INAA;;;;160;ppm;Unknown;0,098;ppm;INAA;0,48;ppm;INAA;;;;;;;;;;;;;;;;26;ppm;Unknown;76;ppm;Unknown;54;ppm;Unknown;;;;;;;;;;;;;;;;;;;;;;;;;;;;;;;;;;0,43;wt%;TITR;1,2;wt%;TITR;0,43;wt%;TITR;1,2;wt%;TITR;;;
GROSCAMP-W-232410;;GROSSMAN-CAMP;GROSSMAN, 1991;36,061;-78,968;0,001;;;CONTINENTAL_RIFT;;;;"AAS; COL; ES; INAA; TITR; Unknown";WHOLE ROCK;IGNEOUS:VOLCANIC:MAFIC;DIABASE;;46,9;wt%;COL;0,55;wt%;COL;17,8;wt%;COL;;;;1,8;wt%;Unknown;;;;7,6;wt%;TITR;;;;;;;0,15;wt%;AAS;9,9;wt%;AAS;11;wt%;Unknown;;;;2,02;wt%;Unknown;0,24;wt%;AAS;0,09;wt%;COL;;;;;;;;;;0,29;wt%;TITR;1,1;wt%;TITR;;;;;;;;;;240;ppm;Unknown;59;ppm;Unknown;100;ppm;Unknown;;;;73;ppm;Unknown;;;;;;;0,09;ppm;INAA;;;;;;;;;;;;;;;;;;;;;;;;;;;;;;;;;;;;;;;;;;;;;;;;;;;;;;;;;;;;;;;;;;;;;;;;;;;;;;;;;;;;;;;;;;;;;;;;;;;;;;;;;;;;;;;;;;;;;;;;;4,8;ppm;INAA;8,8;ppm;INAA;;;;;;;1,74;ppm;INAA;0,66;ppm;INAA;;;;0,47;ppm;INAA;;;;;;;;;;;;;2,3;ppm;INAA;0,38;ppm;INAA;0,01;ppm;TITR;;;;;;;;;;;;;;;;;;;;;;;;;;;;;;;;;;2;ppm;ES;115;ppm;Unknown;;;;;;;;;;;;;59;ppm;Unknown;350;ppm;Unknown;;;;100;ppm;Unknown;;;;;;;1,1;ppm;INAA;;;;;;;;;;;;;;;;;;;;;;;;;240;ppm;Unknown;;;;;;;;;;1,4;ppm;Unknown;9,6;ppm;Unknown;4;ppm;Unknown;;;;;;;;;;0,09;ppm;INAA;;;;36;ppm;INAA;;;;148;ppm;Unknown;0,12;ppm;INAA;;;;;;;;;;;;;;;;;;;23;ppm;Unknown;73;ppm;Unknown;50;ppm;Unknown;;;;;;;;;;;;;;;;;;;;;;;;;;;;;;;;;;0,29;wt%;TITR;1,1;wt%;TITR;0,29;wt%;TITR;1,1;wt%;TITR;;;
GROSCAMP-W-232411;;GROSSMAN-CAMP;GROSSMAN, 1991;36,061;-78,968;0,001;;;CONTINENTAL_RIFT;;;;"AAS; COL; ES; INAA; TITR; Unknown";WHOLE ROCK;IGNEOUS:VOLCANIC:MAFIC;DIABASE;;46,9;wt%;COL;0,6;wt%;COL;17,4;wt%;COL;;;;2,2;wt%;Unknown;;;;7,8;wt%;TITR;;;;;;;0,16;wt%;AAS;9,8;wt%;AAS;11;wt%;Unknown;;;;1,9;wt%;Unknown;0,21;wt%;AAS;0,1;wt%;COL;;;;;;;;;;0,36;wt%;TITR;0,84;wt%;TITR;;;;;;;;;;230;ppm;Unknown;60;ppm;Unknown;110;ppm;Unknown;;;;78;ppm;Unknown;;;;;;;0,13;ppm;INAA;;;;;;;;;;;;;;;;;;;;;;;;;;;;;;;;;;;;;;;;;;;;;;;;;;;;;;;;;;;;;;;;;;;;;;;;;;;;;;;;;;;;;;;;;;;;;;;;;;;;;;;;;;;;;;;;;;;;;;;;;;;;9,2;ppm;INAA;;;;6,1;ppm;INAA;1,8;ppm;INAA;0,67;ppm;INAA;;;;0,51;ppm;INAA;;;;;;;;;;;;;2,8;ppm;INAA;0,4;ppm;INAA;0,01;ppm;TITR;;;;;;;;;;;;;;;;;;;;;;;;;;;;;;;;;;2;ppm;ES;133;ppm;Unknown;;;;;;;;;;;;;60;ppm;Unknown;310;ppm;Unknown;0,57;ppm;INAA;110;ppm;Unknown;;;;;;;1,2;ppm;INAA;;;;;;;;;;;;;;;;;;;;;;;;;230;ppm;Unknown;;;;;;;;;;3,9;ppm;Unknown;13;ppm;Unknown;6;ppm;Unknown;;;;;;;;;;0,13;ppm;INAA;;;;37;ppm;INAA;;;;151;ppm;Unknown;0,12;ppm;INAA;0,39;ppm;INAA;;;;;;;;;;;;;;;;26;ppm;Unknown;78;ppm;Unknown;56;ppm;Unknown;;;;;;;;;;;;;;;;;;;;;;;;;;;;;;;;;;0,36;wt%;TITR;0,84;wt%;TITR;0,36;wt%;TITR;0,84;wt%;TITR;;;
GROSCAMP-W-232412;;GROSSMAN-CAMP;GROSSMAN, 1991;36,061;-78,968;0,001;;;CONTINENTAL_RIFT;;;;"AAS; COL; ES; INAA; TITR; Unknown";WHOLE ROCK;IGNEOUS:VOLCANIC:MAFIC;DIABASE;;47,6;wt%;COL;0,62;wt%;COL;17,5;wt%;COL;;;;2,3;wt%;Unknown;;;;7,7;wt%;TITR;;;;;;;0,16;wt%;AAS;9,5;wt%;AAS;11,2;wt%;Unknown;;;;2,02;wt%;Unknown;0,26;wt%;AAS;0,09;wt%;COL;;;;;;;;;;0,25;wt%;TITR;0,95;wt%;TITR;;;;;;;;;;210;ppm;Unknown;57;ppm;Unknown;110;ppm;Unknown;;;;89;ppm;Unknown;;;;;;;0,15;ppm;INAA;;;;;;;;;;;;;;;;;;;;;;;;;;;;;;;;;;;;;;;;;;;;;;;;;;;;;;;;;;;;;;;;;;;;;;;;;;;;;;;;;;;;;;;;;;;;;;;;;;;;;;;;;;;;;;;;;;;;;;;;;5,1;ppm;INAA;10;ppm;INAA;;;;5,9;ppm;INAA;1,84;ppm;INAA;0,7;ppm;INAA;;;;0,51;ppm;INAA;;;;;;;;;;;;;2,6;ppm;INAA;0,4;ppm;INAA;0,02;ppm;TITR;;;;;;;;;;;;;;;;;;;;;;;;;;;;;;;;;;3;ppm;ES;123;ppm;Unknown;;;;;;;;;;;;;57;ppm;Unknown;330;ppm;Unknown;;;;110;ppm;Unknown;;;;;;;1,3;ppm;INAA;;;;;;;;;;;;;;;;;;;;;;;;;210;ppm;Unknown;;;;;;;;;;3,1;ppm;Unknown;10;ppm;Unknown;7;ppm;Unknown;;;;;;;;;;0,15;ppm;INAA;;;;40;ppm;INAA;;;;156;ppm;Unknown;0,1;ppm;INAA;0,38;ppm;INAA;;;;;;;;;;;;;;;;27;ppm;Unknown;89;ppm;Unknown;59;ppm;Unknown;;;;;;;;;;;;;;;;;;;;;;;;;;;;;;;;;;0,25;wt%;TITR;0,95;wt%;TITR;0,25;wt%;TITR;0,95;wt%;TITR;;;
GROSCAMP-W-232413;;GROSSMAN-CAMP;GROSSMAN, 1991;36,061;-78,968;0,001;;;CONTINENTAL_RIFT;;;;"AAS; COL; INAA; TITR; Unknown";WHOLE ROCK;IGNEOUS:VOLCANIC:MAFIC;DIABASE;;47,8;wt%;COL;0,66;wt%;COL;17,4;wt%;COL;;;;2;wt%;Unknown;;;;8,1;wt%;TITR;;;;;;;0,16;wt%;AAS;9,1;wt%;AAS;11,2;wt%;Unknown;;;;2,02;wt%;Unknown;0,43;wt%;AAS;0,1;wt%;COL;;;;;;;;;;0,38;wt%;TITR;0,82;wt%;TITR;;;;;;;;;;200;ppm;Unknown;55;ppm;Unknown;120;ppm;Unknown;;;;110;ppm;Unknown;;;;;;;0,11;ppm;INAA;;;;;;;;;;;;;;;;;;;;;;;;;;;;;;;;;;;;;;;;;;;;;;;;;;;;;;;;;;;;;;;;;;;;;;;;;;;;;;;;;;;;;;;;;;;;;;;;;;;;;;;;;;;;;;;;;;;;;;;;;5,1;ppm;INAA;12;ppm;INAA;;;;6,6;ppm;INAA;2,03;ppm;INAA;0,74;ppm;INAA;;;;0,55;ppm;INAA;;;;;;;;;;;;;2,9;ppm;INAA;0,45;ppm;INAA;0,01;ppm;TITR;;;;;;;;;;;;;;;;;;;;;;;;;;;;;;;;;;;;;137;ppm;Unknown;;;;;;;;;;;;;55;ppm;Unknown;360;ppm;Unknown;0,44;ppm;INAA;120;ppm;Unknown;;;;;;;1,5;ppm;INAA;;;;;;;;;;;;;;;;;;;;;;;;;200;ppm;Unknown;;;;;;;;;;3,2;ppm;Unknown;16;ppm;Unknown;7;ppm;Unknown;;;;;;;;;;0,11;ppm;INAA;;;;41;ppm;INAA;;;;183;ppm;Unknown;0,13;ppm;INAA;0,41;ppm;INAA;;;;;;;;;;;;;;;;29;ppm;Unknown;110;ppm;Unknown;65;ppm;Unknown;;;;;;;;;;;;;;;;;;;;;;;;;;;;;;;;;;0,38;wt%;TITR;0,82;wt%;TITR;0,38;wt%;TITR;0,82;wt%;TITR;;;
GROSCAMP-W-232414;;GROSSMAN-CAMP;GROSSMAN, 1991;36,061;-78,968;0,001;;;CONTINENTAL_RIFT;;;;"AAS; COL; INAA; TITR; Unknown";WHOLE ROCK;IGNEOUS:VOLCANIC:MAFIC;DIABASE;;47;wt%;COL;0,46;wt%;COL;19,3;wt%;COL;;;;1,1;wt%;Unknown;;;;7,6;wt%;TITR;;;;;;;0,14;wt%;AAS;9,9;wt%;AAS;11,2;wt%;Unknown;;;;2,16;wt%;Unknown;0,19;wt%;AAS;0,07;wt%;COL;;;;;;;;;;0,18;wt%;TITR;0,77;wt%;TITR;;;;;;;;;;240;ppm;Unknown;57;ppm;Unknown;94;ppm;Unknown;;;;67;ppm;Unknown;;;;;;;0,13;ppm;INAA;;;;;;;;;;;;;;;;;;;;;;;;;;;;;;;;;;;;;;;;;;;;;;;;;;;;;;;;;;;;;;;;;;;;;;;;;;;;;;;;;;;;;;;;;;;;;;;;;;;;;;;;;;;;;;;;;;;;;;;;;4;ppm;INAA;8;ppm;INAA;;;;;;;1,4;ppm;INAA;0,58;ppm;INAA;;;;0,37;ppm;INAA;;;;;;;;;;;;;2,1;ppm;INAA;0,29;ppm;INAA;0,01;ppm;TITR;;;;;;;;;;;;;;;;;;;;;;;;;;;;;;;;;;;;;102;ppm;Unknown;;;;;;;;;;;;;57;ppm;Unknown;234;ppm;Unknown;0,53;ppm;INAA;94;ppm;Unknown;;;;;;;0,9;ppm;INAA;;;;;;;;;;;;;;;;;;;;;;;;;240;ppm;Unknown;;;;;;;;;;3,9;ppm;Unknown;11;ppm;Unknown;5;ppm;Unknown;;;;;;;;;;0,13;ppm;INAA;;;;28,7;ppm;INAA;;;;152;ppm;Unknown;0,1;ppm;INAA;0,63;ppm;INAA;;;;;;;;;;;;;;;;20;ppm;Unknown;67;ppm;Unknown;44;ppm;Unknown;;;;;;;;;;;;;;;;;;;;;;;;;;;;;;;;;;0,18;wt%;TITR;0,77;wt%;TITR;0,18;wt%;TITR;0,77;wt%;TITR;;;
GROSCAMP-W-232415;;GROSSMAN-CAMP;GROSSMAN, 1991;36,061;-78,968;0,001;;;CONTINENTAL_RIFT;;;;"AAS; COL; INAA; TITR; Unknown";WHOLE ROCK;IGNEOUS:VOLCANIC:MAFIC;DIABASE;;45,5;wt%;COL;0,31;wt%;COL;19,8;wt%;COL;;;;0,9;wt%;Unknown;;;;7,6;wt%;TITR;;;;;;;0,14;wt%;AAS;12,8;wt%;AAS;10,8;wt%;Unknown;;;;1,62;wt%;Unknown;0,13;wt%;AAS;0,19;wt%;COL;;;;;;;;;;0,12;wt%;TITR;0,58;wt%;TITR;;;;;;;;;;400;ppm;Unknown;67;ppm;Unknown;71;ppm;Unknown;;;;57;ppm;Unknown;;;;;;;0,13;ppm;INAA;;;;;;;;;;;;;;;;;;;;;;;;;;;;;;;;;;;;;;;;;;;;;;;;;;;;;;;;;;;;;;;;;;;;;;;;;;;;;;;;;;;;;;;;;;;;;;;;;;;;;;;;;;;;;;;;;;;;;;;;;2,3;ppm;INAA;4,6;ppm;INAA;;;;;;;0,91;ppm;INAA;0,41;ppm;INAA;;;;0,22;ppm;INAA;;;;;;;;;;;;;1,2;ppm;INAA;0,2;ppm;INAA;0,02;ppm;TITR;;;;;;;;;;;;;;;;;;;;;;;;;;;;;;;;;;;;;79;ppm;Unknown;;;;;;;;;;;;;67;ppm;Unknown;274;ppm;Unknown;;;;71;ppm;Unknown;;;;;;;0,54;ppm;INAA;;;;;;;;;;;;;;;;;;;;;;;;;400;ppm;Unknown;;;;;;;;;;8,7;ppm;Unknown;21;ppm;Unknown;;;;;;;;;;;;;0,13;ppm;INAA;;;;22,3;ppm;INAA;;;;139;ppm;Unknown;0,068;ppm;INAA;;;;;;;;;;0,27;ppm;INAA;;;;;;;12;ppm;Unknown;57;ppm;Unknown;27;ppm;Unknown;;;;;;;;;;;;;;;;;;;;;;;;;;;;;;;;;;0,12;wt%;TITR;0,58;wt%;TITR;0,12;wt%;TITR;0,58;wt%;TITR;;;
GROSCAMP-W-232416;;GROSSMAN-CAMP;GROSSMAN, 1991;36,061;-78,968;0,001;;;CONTINENTAL_RIFT;;;;"AAS; COL; INAA; TITR; Unknown";WHOLE ROCK;IGNEOUS:VOLCANIC:MAFIC;DIABASE;;47,7;wt%;COL;0,73;wt%;COL;16,4;wt%;COL;;;;2,1;wt%;Unknown;;;;8,6;wt%;TITR;;;;;;;0,18;wt%;AAS;7,9;wt%;AAS;11,2;wt%;Unknown;;;;2,16;wt%;Unknown;0,27;wt%;AAS;0,11;wt%;COL;;;;;;;;;;0,19;wt%;TITR;1,1;wt%;TITR;;;;;;;;;;120;ppm;Unknown;52;ppm;Unknown;130;ppm;Unknown;;;;96;ppm;Unknown;;;;;;;0,17;ppm;INAA;;;;;;;;;;;;;;;;;;;;;;;;;;;;;;;;;;;;;;;;;;;;;;;;;;;;;;;;;;;;;;;;;;;;;;;;;;;;;;;;;;;;;;;;;;;;;;;;;;;;;;;;;;;;;;;;;;;;;;;;;5,8;ppm;INAA;12;ppm;INAA;;;;8,5;ppm;INAA;2,3;ppm;INAA;0,82;ppm;INAA;;;;0,58;ppm;INAA;;;;;;;;;;;;;3,2;ppm;INAA;0,48;ppm;INAA;0,01;ppm;TITR;;;;;;;;;;;;;;;;;;;;;;;;;;;;;;;;;;;;;150;ppm;Unknown;;;;;;;;;;;;;52;ppm;Unknown;268;ppm;Unknown;0,5;ppm;INAA;130;ppm;Unknown;;;;;;;1,4;ppm;INAA;;;;;;;;;;;;;;;;;;;;;;;;;120;ppm;Unknown;;;;;;;;;;4,1;ppm;Unknown;10;ppm;Unknown;4;ppm;Unknown;;;;;;;;;;0,17;ppm;INAA;;;;46;ppm;INAA;;;;140;ppm;Unknown;0,13;ppm;INAA;;;;;;;;;;;;;;;;;;;29;ppm;Unknown;96;ppm;Unknown;66;ppm;Unknown;;;;;;;;;;;;;;;;;;;;;;;;;;;;;;;;;;0,19;wt%;TITR;1,1;wt%;TITR;0,19;wt%;TITR;1,1;wt%;TITR;;;
GROSCAMP-W-232417;;GROSSMAN-CAMP;GROSSMAN, 1991;36,061;-78,968;0,001;;;CONTINENTAL_RIFT;;;;"AAS; COL; INAA; TITR; Unknown";WHOLE ROCK;IGNEOUS:VOLCANIC:MAFIC;DIABASE;;48,3;wt%;COL;0,74;wt%;COL;16,5;wt%;COL;;;;2,2;wt%;Unknown;;;;8,6;wt%;TITR;;;;;;;0,18;wt%;AAS;8,3;wt%;AAS;11,2;wt%;Unknown;;;;2,16;wt%;Unknown;0,3;wt%;AAS;0,1;wt%;COL;;;;;;;;;;0,27;wt%;TITR;0,83;wt%;TITR;;;;;;;;;;130;ppm;Unknown;53;ppm;Unknown;130;ppm;Unknown;;;;91;ppm;Unknown;;;;;;;0,24;ppm;INAA;;;;;;;;;;;;;;;;;;;;;;;;;;;;;;;;;;;;;;;;;;;;;;;;;;;;;;;;;;;;;;;;;;;;;;;;;;;;;;;;;;;;;;;;;;;;;;;;;;;;;;;;;;;;;;;;;;;;;;;;;5,5;ppm;INAA;12;ppm;INAA;;;;8,3;ppm;INAA;2,31;ppm;INAA;0,81;ppm;INAA;;;;0,55;ppm;INAA;;;;;;;;;;;;;3,2;ppm;INAA;0,49;ppm;INAA;0,01;ppm;TITR;;;;;;;;;;;;;;;;;;;;;;;;;;;;;;;;;;;;;161;ppm;Unknown;;;;;;;;;;;;;53;ppm;Unknown;284;ppm;Unknown;0,38;ppm;INAA;130;ppm;Unknown;;;;;;;1,5;ppm;INAA;;;;;;;;;;;;;;;;;;;;;;;;;130;ppm;Unknown;;;;;;;;;;4,2;ppm;Unknown;8;ppm;Unknown;3;ppm;Unknown;;;;;;;;;;0,24;ppm;INAA;;;;47;ppm;INAA;;;;161;ppm;Unknown;0,15;ppm;INAA;0,46;ppm;INAA;;;;;;;;;;;;;;;;26;ppm;Unknown;91;ppm;Unknown;65;ppm;Unknown;;;;;;;;;;;;;;;;;;;;;;;;;;;;;;;;;;0,27;wt%;TITR;0,83;wt%;TITR;0,27;wt%;TITR;0,83;wt%;TITR;;;