SAMPLE ID;IGSN;EXPEDITION ID;REFERENCES;LATITUDE;LONGITUDE;LOC PREC;MIN ELEVATION;MAX ELEVATION;TECTONIC SETTING;MIN AGE;AGE;MAX AGE;METHOD;ANALYZED MATERIAL;ROCK TYPE;ROCK NAME;MINERAL;SIO2;SIO2 Units;SIO2 Method;TIO2;TIO2 Units;TIO2 Method;AL2O3;AL2O3 Units;AL2O3 Method;CR2O3;CR2O3 Units;CR2O3 Method;FE2O3;FE2O3 Units;FE2O3 Method;FE2O3T;FE2O3T Units;FE2O3T Method;FEO;FEO Units;FEO Method;FEOT;FEOT Units;FEOT Method;NIO;NIO Units;NIO Method;MNO;MNO Units;MNO Method;MGO;MGO Units;MGO Method;CAO;CAO Units;CAO Method;SRO;SRO Units;SRO Method;NA2O;NA2O Units;NA2O Method;K2O;K2O Units;K2O Method;P2O5;P2O5 Units;P2O5 Method;BAO;BAO Units;BAO Method;LOI;LOI Units;LOI Method;H2O;H2O Units;H2O Method;H2O_M;H2O_M Units;H2O_M Method;H2O_P;H2O_P Units;H2O_P Method;SO3;SO3 Units;SO3 Method;COO;COO Units;COO Method;MN;MN Units;MN Method;NI;NI Units;NI Method;CO;CO Units;CO Method;CU;CU Units;CU Method;CD;CD Units;CD Method;ZN;ZN Units;ZN Method;AS;AS Units;AS Method;AG;AG Units;AG Method;S;S Units;S Method;ZRO2;ZRO2 Units;ZRO2 Method;AL;AL Units;AL Method;CA;CA Units;CA Method;SR87_SR86;SR87_SR86 Units;SR87_SR86 Method;SR87_SR86_INI;SR87_SR86_INI Units;SR87_SR86_INI Method;RB87_SR86;RB87_SR86 Units;RB87_SR86 Method;ND143_ND144;ND143_ND144 Units;ND143_ND144 Method;ND143_ND144_INI;ND143_ND144_INI Units;ND143_ND144_INI Method;SM147_ND144;SM147_ND144 Units;SM147_ND144 Method;E_ND;E_ND Units;E_ND Method;E_ND_INI;E_ND_INI Units;E_ND_INI Method;PB204_PB206;PB204_PB206 Units;PB204_PB206 Method;PB206_PB204;PB206_PB204 Units;PB206_PB204 Method;PB206_PB204_INI;PB206_PB204_INI Units;PB206_PB204_INI Method;PB207_PB204;PB207_PB204 Units;PB207_PB204 Method;PB207_PB204_INI;PB207_PB204_INI Units;PB207_PB204_INI Method;PB207_PB206;PB207_PB206 Units;PB207_PB206 Method;PB208_PB204;PB208_PB204 Units;PB208_PB204 Method;PB208_PB204_INI;PB208_PB204_INI Units;PB208_PB204_INI Method;PB208_PB206;PB208_PB206 Units;PB208_PB206 Method;HF176_HF177;HF176_HF177 Units;HF176_HF177 Method;RE187_OS188;RE187_OS188 Units;RE187_OS188 Method;OS187_OS188;OS187_OS188 Units;OS187_OS188 Method;OS187_OS188_INI;OS187_OS188_INI Units;OS187_OS188_INI Method;G_OS;G_OS Units;G_OS Method;G_OS_INI;G_OS_INI Units;G_OS_INI Method;ND143_ND144_INI;ND143_ND144_INI Units;ND143_ND144_INI Method;PB206_PB204_INI;PB206_PB204_INI Units;PB206_PB204_INI Method;PB207_PB204_INI;PB207_PB204_INI Units;PB207_PB204_INI Method;PB208_PB204_INI;PB208_PB204_INI Units;PB208_PB204_INI Method;SR87_SR86_INI;SR87_SR86_INI Units;SR87_SR86_INI Method;HE;HE Units;HE Method;HE3;HE3 Units;HE3 Method;HE3_HE4_R_RA;HE3_HE4_R_RA Units;HE3_HE4_R_RA Method;AR36;AR36 Units;AR36 Method;AR40;AR40 Units;AR40 Method;AR40_AR36;AR40_AR36 Units;AR40_AR36 Method;NE20;NE20 Units;NE20 Method;NE20_NE22;NE20_NE22 Units;NE20_NE22 Method;NE21_NE22;NE21_NE22 Units;NE21_NE22 Method;LA;LA Units;LA Method;CE;CE Units;CE Method;PR;PR Units;PR Method;ND;ND Units;ND Method;SM;SM Units;SM Method;EU;EU Units;EU Method;GD;GD Units;GD Method;TB;TB Units;TB Method;DY;DY Units;DY Method;HO;HO Units;HO Method;ER;ER Units;ER Method;TM;TM Units;TM Method;YB;YB Units;YB Method;LU;LU Units;LU Method;CO2;CO2 Units;CO2 Method;F;F Units;F Method;CL;CL Units;CL Method;U238_PB204;U238_PB204 Units;U238_PB204 Method;TH230_TH232;TH230_TH232 Units;TH230_TH232 Method;RA226_ACTIVITY;RA226_ACTIVITY Units;RA226_ACTIVITY Method;PB210_RA226;PB210_RA226 Units;PB210_RA226 Method;PB210_ACTIVITY;PB210_ACTIVITY Units;PB210_ACTIVITY Method;AG;AG Units;AG Method;AL;AL Units;AL Method;AS;AS Units;AS Method;AU;AU Units;AU Method;B;B Units;B Method;BA;BA Units;BA Method;BE;BE Units;BE Method;BI;BI Units;BI Method;CA;CA Units;CA Method;CD;CD Units;CD Method;CO;CO Units;CO Method;CR;CR Units;CR Method;CS;CS Units;CS Method;CU;CU Units;CU Method;GA;GA Units;GA Method;GER;GER Units;GER Method;HF;HF Units;HF Method;INDIUM;INDIUM Units;INDIUM Method;IR;IR Units;IR Method;K;K Units;K Method;LI;LI Units;LI Method;MN;MN Units;MN Method;MO;MO Units;MO Method;NA;NA Units;NA Method;NB;NB Units;NB Method;NI;NI Units;NI Method;OS;OS Units;OS Method;P;P Units;P Method;PB;PB Units;PB Method;PD;PD Units;PD Method;PT;PT Units;PT Method;RB;RB Units;RB Method;RE;RE Units;RE Method;RH;RH Units;RH Method;RU;RU Units;RU Method;S;S Units;S Method;SB;SB Units;SB Method;SC;SC Units;SC Method;SN;SN Units;SN Method;SR;SR Units;SR Method;TA;TA Units;TA Method;TH;TH Units;TH Method;TI;TI Units;TI Method;TL;TL Units;TL Method;U;U Units;U Method;V;V Units;V Method;W;W Units;W Method;Y;Y Units;Y Method;ZN;ZN Units;ZN Method;ZR;ZR Units;ZR Method;DELTA_O18;DELTA_O18 Units;DELTA_O18 Method;DELTA_C13;DELTA_C13 Units;DELTA_C13 Method;DELTA_MO98;DELTA_MO98 Units;DELTA_MO98 Method;DELTA_ZN66;DELTA_ZN66 Units;DELTA_ZN66 Method;DELTA_ZN68;DELTA_ZN68 Units;DELTA_ZN68 Method;OS188;OS188 Units;OS188 Method;FE3P_FET;FE3P_FET Units;FE3P_FET Method;TI;TI Units;TI Method;AS;AS Units;AS Method;AS;AS Units;AS Method;GER;GER Units;GER Method;H2O_M;H2O_M Units;H2O_M Method;H2O_P;H2O_P Units;H2O_P Method;H2O_M;H2O_M Units;H2O_M Method;H2O_P;H2O_P Units;H2O_P Method;INDIUM;INDIUM Units;INDIUM Method
GROSCAMP-W-238444;;GROSSMAN-CAMP;GROSSMAN, 1991;39,7236;-77,3653;0,001;;;CONTINENTAL_RIFT;;;;"AAS; COL; ICP; INAA; TITR; Unknown";WHOLE ROCK;IGNEOUS:VOLCANIC:MAFIC;DIABASE;;52,7;wt%;COL;2,21;wt%;COL;14,2;wt%;COL;;;;4,3;wt%;Unknown;;;;9,9;wt%;TITR;;;;;;;0,19;wt%;AAS;3,25;wt%;AAS;8,25;wt%;Unknown;;;;3,05;wt%;Unknown;1,08;wt%;AAS;0,26;wt%;COL;;;;;;;;;;0,22;wt%;TITR;1;wt%;TITR;;;;;;;;;;19;ppm;Unknown;45;ppm;Unknown;189;ppm;Unknown;;;;89;ppm;Unknown;;;;;;;0,02;ppm;INAA;;;;;;;;;;;;;;;;;;;;;;;;;;;;;;;;;;;;;;;;;;;;;;;;;;;;;;;;;;;;;;;;;;;;;;;;;;;;;;;;;;;;;;;;;;;;;;;;;;;;;;;;;;;;;;;;;;;;;;;;;20,5;ppm;INAA;41;ppm;INAA;;;;22;ppm;INAA;6,1;ppm;INAA;1,7;ppm;INAA;;;;0,98;ppm;INAA;;;;;;;;;;;;;3,6;ppm;INAA;0,52;ppm;INAA;0,01;ppm;TITR;0,03;ppm;INAA;0,05;ppm;INAA;;;;;;;;;;;;;;;;;;;;;;;;;;;;;;;286;ppm;Unknown;;;;;;;;;;;;;45;ppm;Unknown;;;;1,6;ppm;INAA;189;ppm;Unknown;;;;;;;4,4;ppm;INAA;;;;;;;;;;;;;;;;;;;;;;14;ppm;ICP;19;ppm;Unknown;;;;;;;;;;18;ppm;Unknown;4,7;ppm;Unknown;40;ppm;Unknown;;;;;;;;;;0,02;ppm;INAA;0,3;ppm;INAA;34;ppm;INAA;;;;230;ppm;Unknown;1;ppm;INAA;4,2;ppm;INAA;;;;;;;0,59;ppm;INAA;;;;;;;39;ppm;Unknown;89;ppm;Unknown;184;ppm;Unknown;;;;;;;;;;;;;;;;;;;;;;;;;;;;;;;;;;0,22;wt%;TITR;1;wt%;TITR;0,22;wt%;TITR;1;wt%;TITR;;;
GROSCAMP-W-238445;;GROSSMAN-CAMP;GROSSMAN, 1991;39,7333;-77,3653;0,001;;;CONTINENTAL_RIFT;;;;"AAS; COL; ICP; INAA; TITR; Unknown";WHOLE ROCK;IGNEOUS:VOLCANIC:MAFIC;DIABASE;;62,2;wt%;COL;1,35;wt%;COL;12;wt%;COL;;;;4,78;wt%;Unknown;;;;6,3;wt%;TITR;;;;;;;0,13;wt%;AAS;0,89;wt%;AAS;3,4;wt%;Unknown;;;;5,15;wt%;Unknown;1,9;wt%;AAS;0,45;wt%;COL;;;;;;;;;;0,26;wt%;TITR;0,91;wt%;TITR;;;;;;;;;;;;;15,3;ppm;Unknown;135;ppm;Unknown;;;;77;ppm;Unknown;;;;;;;0,02;ppm;INAA;;;;;;;;;;;;;;;;;;;;;;;;;;;;;;;;;;;;;;;;;;;;;;;;;;;;;;;;;;;;;;;;;;;;;;;;;;;;;;;;;;;;;;;;;;;;;;;;;;;;;;;;;;;;;;;;;;;;;;;;;58;ppm;INAA;97;ppm;INAA;;;;;;;14,5;ppm;INAA;2,67;ppm;INAA;;;;2,2;ppm;INAA;;;;;;;;;;;;;6,9;ppm;INAA;1;ppm;INAA;;;;0,1;ppm;INAA;0,1;ppm;INAA;;;;;;;;;;;;;;;;;;;;;;;;;;;;;;;350;ppm;Unknown;;;;;;;;;;;;;15,3;ppm;Unknown;;;;0,38;ppm;INAA;135;ppm;Unknown;;;;;;;10,5;ppm;INAA;;;;;;;;;;;;;;;;;;;;;;26;ppm;ICP;;;;;;;;;;;;;;;;;;;51;ppm;Unknown;;;;;;;;;;0,02;ppm;INAA;0,4;ppm;INAA;20,6;ppm;INAA;;;;142;ppm;Unknown;2,08;ppm;INAA;10;ppm;INAA;;;;;;;2,2;ppm;INAA;;;;;;;78;ppm;Unknown;77;ppm;Unknown;390;ppm;Unknown;;;;;;;;;;;;;;;;;;;;;;;;;;;;;;;;;;0,26;wt%;TITR;0,91;wt%;TITR;0,26;wt%;TITR;0,91;wt%;TITR;;;
GROSCAMP-W-238446;;GROSSMAN-CAMP;GROSSMAN, 1991;40,1944;-76,8778;0,001;;;CONTINENTAL_RIFT;;;;"AAS; COL; ICP; ICPMS; INAA; TITR; Unknown";WHOLE ROCK;IGNEOUS:VOLCANIC:MAFIC;DIABASE;;53,7;wt%;COL;0,88;wt%;COL;17,9;wt%;COL;;;;2,27;wt%;Unknown;;;;7;wt%;TITR;;;;;;;0,14;wt%;AAS;3,42;wt%;AAS;9,57;wt%;Unknown;;;;3,25;wt%;Unknown;1;wt%;AAS;0,21;wt%;COL;;;;;;;;;;0,18;wt%;TITR;1;wt%;TITR;;;;;;;;;;28;ppm;Unknown;32;ppm;Unknown;93;ppm;Unknown;;;;84;ppm;Unknown;;;;;;;0,02;ppm;INAA;;;;;;;;;;;;;;;;;;;;;;;;;;;;;;;;;;;;;;;;;;;;;;;;;;;;;;;;;;;;;;;;;;;;;;;;;;;;;;;;;;;;;;;;;;;;;;;;;;;;;;;;;;;;;;;;;;;;;;;;;16;ppm;INAA;31;ppm;INAA;;;;16;ppm;INAA;4,5;ppm;INAA;1,53;ppm;INAA;;;;0,83;ppm;INAA;;;;;;;;;;;;;2,3;ppm;INAA;0,39;ppm;INAA;0,01;ppm;TITR;0,03;ppm;INAA;0,04;ppm;INAA;;;;;;;;;;;;;;;;;;;;;;;;;;;;;;;271;ppm;Unknown;;;;;;;;;;;;;32;ppm;Unknown;6,7;ppm;Unknown;1;ppm;INAA;93;ppm;Unknown;;;;;;;3,2;ppm;INAA;;;;;;;;;;;;;;;;;;;;;;8,4;ppm;ICP;28;ppm;Unknown;;;;;;;;;;2;ppm;Unknown;6,1;ppm;Unknown;37;ppm;Unknown;;;;;;;1;ppm;ICPMS;0,02;ppm;INAA;;;;25,2;ppm;INAA;;;;264;ppm;Unknown;0,68;ppm;INAA;3,1;ppm;INAA;;;;;;;0,57;ppm;INAA;;;;;;;27;ppm;Unknown;84;ppm;Unknown;125;ppm;Unknown;;;;;;;;;;;;;;;;;;;;;;;;;;;;;;;;;;0,18;wt%;TITR;1;wt%;TITR;0,18;wt%;TITR;1;wt%;TITR;;;
GROSCAMP-W-238447;;GROSSMAN-CAMP;GROSSMAN, 1991;39,7333;-77,3653;0,001;;;CONTINENTAL_RIFT;;;;"AAS; COL; ICP; INAA; TITR; Unknown";WHOLE ROCK;IGNEOUS:VOLCANIC:MAFIC;DIABASE;;59,1;wt%;COL;1,65;wt%;COL;11,7;wt%;COL;;;;4,63;wt%;Unknown;;;;8,7;wt%;TITR;;;;;;;0,18;wt%;AAS;0,96;wt%;AAS;5,1;wt%;Unknown;;;;3,23;wt%;Unknown;2,25;wt%;AAS;0,58;wt%;COL;;;;;;;;;;0,46;wt%;TITR;0,91;wt%;TITR;;;;;;;;;;7;ppm;Unknown;20;ppm;Unknown;320;ppm;Unknown;;;;88;ppm;Unknown;3,1;ppm;INAA;;;;0,03;ppm;INAA;;;;;;;;;;;;;;;;;;;;;;;;;;;;;;;;;;;;;;;;;;;;;;;;;;;;;;;;;;;;;;;;;;;;;;;;;;;;;;;;;;;;;;;;;;;;;;;;;;;;;;;;;;;;;;;;;;;;;;;;;42;ppm;INAA;88;ppm;INAA;;;;48;ppm;INAA;12,6;ppm;INAA;2,9;ppm;INAA;;;;2,15;ppm;INAA;;;;;;;;;;;;;7;ppm;INAA;0,97;ppm;INAA;;;;0,08;ppm;INAA;0,27;ppm;INAA;;;;;;;;;;;;;;;;;;;;;;3,1;ppm;INAA;;;;;;;540;ppm;Unknown;;;;;;;;;;;;;20;ppm;Unknown;3,2;ppm;Unknown;2,1;ppm;INAA;320;ppm;Unknown;;;;;;;9,3;ppm;INAA;;;;;;;;;;;;;;;;;;;;;;24;ppm;ICP;7;ppm;Unknown;;;;;;;;;;;;;;;;78;ppm;Unknown;;;;;;;;;;0,03;ppm;INAA;0,33;ppm;INAA;25,4;ppm;INAA;;;;207;ppm;Unknown;2;ppm;INAA;9,2;ppm;INAA;;;;;;;2;ppm;INAA;;;;;;;71;ppm;Unknown;88;ppm;Unknown;320;ppm;Unknown;;;;;;;;;;;;;;;;;;;;;;;;;3,1;ppm;INAA;3,1;ppm;INAA;;;;0,46;wt%;TITR;0,91;wt%;TITR;0,46;wt%;TITR;0,91;wt%;TITR;;;
GROSCAMP-W-238448;;GROSSMAN-CAMP;GROSSMAN, 1991;40,0972;-78,9697;0,001;;;CONTINENTAL_RIFT;;;;"AAS; COL; ICP; INAA; TITR; Unknown";WHOLE ROCK;IGNEOUS:VOLCANIC:MAFIC;DIABASE;;59,3;wt%;COL;1,52;wt%;COL;11,7;wt%;COL;;;;3,84;wt%;Unknown;;;;9,8;wt%;TITR;;;;;;;0,24;wt%;AAS;0,96;wt%;AAS;4,17;wt%;Unknown;;;;3,79;wt%;Unknown;2,33;wt%;AAS;0,53;wt%;COL;;;;;;;;;;0,32;wt%;TITR;1,4;wt%;TITR;;;;;;;;;;8;ppm;Unknown;21,6;ppm;Unknown;218;ppm;Unknown;;;;182;ppm;Unknown;3,9;ppm;INAA;;;;0,05;ppm;INAA;;;;;;;;;;;;;;;;;;;;;;;;;;;;;;;;;;;;;;;;;;;;;;;;;;;;;;;;;;;;;;;;;;;;;;;;;;;;;;;;;;;;;;;;;;;;;;;;;;;;;;;;;;;;;;;;;;;;;;;;;43;ppm;INAA;88;ppm;INAA;;;;49;ppm;INAA;12,8;ppm;INAA;2,89;ppm;INAA;;;;2,13;ppm;INAA;;;;;;;;;;;;;7,2;ppm;INAA;0,98;ppm;INAA;0,08;ppm;TITR;0,09;ppm;INAA;0,24;ppm;INAA;;;;;;;;;;;;;;;;;;;;;;3,9;ppm;INAA;52;ppm;INAA;;;;580;ppm;Unknown;;;;;;;;;;;;;21,6;ppm;Unknown;2,1;ppm;Unknown;2,97;ppm;INAA;218;ppm;Unknown;;;;;;;9;ppm;INAA;;;;;;;;;;;;;;;;;;;;;;26;ppm;ICP;8;ppm;Unknown;;;;;;;;;;;;;;;;71;ppm;Unknown;;;;;;;;;;0,05;ppm;INAA;0,56;ppm;INAA;22,2;ppm;INAA;;;;203;ppm;Unknown;1,93;ppm;INAA;8,6;ppm;INAA;;;;;;;1,5;ppm;INAA;;;;;;;75;ppm;Unknown;182;ppm;Unknown;330;ppm;Unknown;;;;;;;;;;;;;;;;;;;;;;;;;3,9;ppm;INAA;3,9;ppm;INAA;;;;0,32;wt%;TITR;1,4;wt%;TITR;0,32;wt%;TITR;1,4;wt%;TITR;;;
GROSCAMP-W-238449;;GROSSMAN-CAMP;GROSSMAN, 1991;38,5153;-77,5375;0,001;;;CONTINENTAL_RIFT;;;;"AAS; COL; ICP; ICPMS; INAA; TITR; Unknown";WHOLE ROCK;IGNEOUS:VOLCANIC:MAFIC;DIABASE;;52,5;wt%;COL;1,72;wt%;COL;14,9;wt%;COL;;;;3,34;wt%;Unknown;;;;9,6;wt%;TITR;;;;;;;0,22;wt%;AAS;3,98;wt%;AAS;9,54;wt%;Unknown;;;;2,64;wt%;Unknown;0,92;wt%;AAS;0,2;wt%;COL;;;;;;;;;;0,34;wt%;TITR;1;wt%;TITR;;;;;;;;;;41;ppm;Unknown;45;ppm;Unknown;116;ppm;Unknown;;;;99;ppm;Unknown;4,1;ppm;INAA;;;;0,01;ppm;INAA;;;;;;;;;;;;;;;;;;;;;;;;;;;;;;;;;;;;;;;;;;;;;;;;;;;;;;;;;;;;;;;;;;;;;;;;;;;;;;;;;;;;;;;;;;;;;;;;;;;;;;;;;;;;;;;;;;;;;;;;;16,8;ppm;INAA;35;ppm;INAA;;;;20;ppm;INAA;5;ppm;INAA;1,5;ppm;INAA;;;;0,84;ppm;INAA;;;;;;;;;;;;;3,1;ppm;INAA;0,45;ppm;INAA;;;;0,03;ppm;INAA;0,18;ppm;INAA;;;;;;;;;;;;;;;;;;;;;;4,1;ppm;INAA;10;ppm;INAA;;;;262;ppm;Unknown;;;;;;;;;;;;;45;ppm;Unknown;9,7;ppm;Unknown;1,7;ppm;INAA;116;ppm;Unknown;;;;;;;3,8;ppm;INAA;;;;;;;;;;;;;;;;;;;;;;10;ppm;ICP;41;ppm;Unknown;;;;;;;;;;15;ppm;Unknown;5,4;ppm;Unknown;32;ppm;Unknown;;;;;;;0,5;ppm;ICPMS;0,01;ppm;INAA;0,14;ppm;INAA;34;ppm;INAA;;;;245;ppm;Unknown;0,83;ppm;INAA;3,8;ppm;INAA;;;;;;;0,79;ppm;INAA;;;;;;;33;ppm;Unknown;99;ppm;Unknown;134;ppm;Unknown;;;;;;;;;;;;;;;;;;;;;;;;;4,1;ppm;INAA;4,1;ppm;INAA;;;;0,34;wt%;TITR;1;wt%;TITR;0,34;wt%;TITR;1;wt%;TITR;;;
GROSCAMP-W-238451;;GROSSMAN-CAMP;GROSSMAN, 1991;39,7236;-77,3653;0,001;;;CONTINENTAL_RIFT;;;;"AAS; COL; ICP; INAA; TITR; Unknown";WHOLE ROCK;IGNEOUS:VOLCANIC:MAFIC;DIABASE;;52,6;wt%;COL;1,77;wt%;COL;14,1;wt%;COL;;;;2,96;wt%;Unknown;;;;10,2;wt%;TITR;;;;;;;0,18;wt%;AAS;3,43;wt%;AAS;7,89;wt%;Unknown;;;;3,14;wt%;Unknown;1,5;wt%;AAS;0,23;wt%;COL;;;;;;;;;;0,29;wt%;TITR;1,5;wt%;TITR;;;;;;;;;;43;ppm;Unknown;44;ppm;Unknown;130;ppm;Unknown;;;;105;ppm;Unknown;3,1;ppm;INAA;;;;0,02;ppm;INAA;;;;;;;;;;;;;;;;;;;;;;;;;;;;;;;;;;;;;;;;;;;;;;;;;;;;;;;;;;;;;;;;;;;;;;;;;;;;;;;;;;;;;;;;;;;;;;;;;;;;;;;;;;;;;;;;;;;;;;;;;18,6;ppm;INAA;39;ppm;INAA;;;;21;ppm;INAA;5,8;ppm;INAA;1,5;ppm;INAA;;;;1;ppm;INAA;;;;;;;;;;;;;3,5;ppm;INAA;0,49;ppm;INAA;0,02;ppm;TITR;0,04;ppm;INAA;0,13;ppm;INAA;;;;;;;;;;;;;;;;;;;;;;3,1;ppm;INAA;12;ppm;INAA;;;;380;ppm;Unknown;;;;;;;;;;;;;44;ppm;Unknown;6,7;ppm;Unknown;0,79;ppm;INAA;130;ppm;Unknown;;;;;;;4,2;ppm;INAA;;;;;;;;;;;;;;;;;;;;;;11;ppm;ICP;43;ppm;Unknown;;;;;;;;;;17;ppm;Unknown;4,3;ppm;Unknown;57;ppm;Unknown;;;;;;;;;;0,02;ppm;INAA;0,39;ppm;INAA;35;ppm;INAA;;;;216;ppm;Unknown;0,9;ppm;INAA;3,8;ppm;INAA;;;;;;;0,83;ppm;INAA;;;;;;;40;ppm;Unknown;105;ppm;Unknown;153;ppm;Unknown;;;;;;;;;;;;;;;;;;;;;;;;;3,1;ppm;INAA;3,1;ppm;INAA;;;;0,29;wt%;TITR;1,5;wt%;TITR;0,29;wt%;TITR;1,5;wt%;TITR;;;
GROSCAMP-W-238452;;GROSSMAN-CAMP;GROSSMAN, 1991;40,0947;-77,8397;0,001;;;CONTINENTAL_RIFT;;;;"AAS; COL; ICP; INAA; TITR; Unknown";WHOLE ROCK;IGNEOUS:VOLCANIC:MAFIC;DIABASE;;52,6;wt%;COL;1,16;wt%;COL;14,2;wt%;COL;;;;2,87;wt%;Unknown;;;;8,1;wt%;TITR;;;;;;;0,18;wt%;AAS;7,13;wt%;AAS;10,9;wt%;Unknown;;;;2,25;wt%;Unknown;0,61;wt%;AAS;0,14;wt%;COL;;;;;;;;;;0,18;wt%;TITR;0,71;wt%;TITR;;;;;;;;;;75;ppm;Unknown;45;ppm;Unknown;102;ppm;Unknown;;;;67;ppm;Unknown;;;;;;;0,01;ppm;INAA;;;;;;;;;;;;;;;;;;;;;;;;;;;;;;;;;;;;;;;;;;;;;;;;;;;;;;;;;;;;;;;;;;;;;;;;;;;;;;;;;;;;;;;;;;;;;;;;;;;;;;;;;;;;;;;;;;;;;;;;;11;ppm;INAA;24;ppm;INAA;;;;11;ppm;INAA;3,6;ppm;INAA;1,1;ppm;INAA;;;;0,62;ppm;INAA;;;;;;;;;;;;;2,1;ppm;INAA;0,33;ppm;INAA;0,01;ppm;TITR;0,02;ppm;INAA;0,07;ppm;INAA;;;;;;;;;;;;;;;;;;;;;;;;;;;;;;;163;ppm;Unknown;;;;;;;;;;;;;45;ppm;Unknown;259;ppm;Unknown;0,61;ppm;INAA;102;ppm;Unknown;;;;;;;2,5;ppm;INAA;;;;;;;;;;;;;;;;;;;;;;7,3;ppm;ICP;75;ppm;Unknown;;;;;;;;;;12;ppm;Unknown;11;ppm;Unknown;32;ppm;Unknown;;;;0,6;ppm;Unknown;;;;0,01;ppm;INAA;0,14;ppm;INAA;37;ppm;INAA;;;;202;ppm;Unknown;0,52;ppm;INAA;2,1;ppm;INAA;;;;;;;0,53;ppm;INAA;;;;;;;27;ppm;Unknown;67;ppm;Unknown;106;ppm;Unknown;;;;;;;;;;;;;;;;;;;;;;;;;;;;;;;;;;0,18;wt%;TITR;0,71;wt%;TITR;0,18;wt%;TITR;0,71;wt%;TITR;;;
GROSCAMP-W-241505;;GROSSMAN-CAMP;GROSSMAN, 1991;40,1167;-76,7;0,001;;;CONTINENTAL_RIFT;;;;"AAS; COL; INAA; TITR; Unknown";WHOLE ROCK;IGNEOUS:VOLCANIC:MAFIC;DIABASE;;51,5;wt%;COL;0,72;wt%;COL;13,6;wt%;COL;;;;0,96;wt%;Unknown;;;;8,04;wt%;TITR;;;;;;;0,17;wt%;AAS;10,6;wt%;AAS;11,5;wt%;Unknown;;;;1,51;wt%;Unknown;0,33;wt%;AAS;0,1;wt%;COL;;;;;;;;;;;;;;;;;;;;;;;;;;;;;;;;;;;;;;;;;;;;;;0,01;ppm;INAA;;;;;;;;;;;;;;;;;;;;;;;;;;;;;;;;;;;;;;;;;;;;;;;;;;;;;;;;;;;;;;;;;;;;;;;;;;;;;;;;;;;;;;;;;;;;;;;;;;;;;;;;;;;;;;;;;;;;;;;;;;;;;;;;;;;;;;;;;;;;;;;;;;;;;;;;;;;;;;;;;;;;;;;;;0,02;ppm;INAA;;;;;;;;;;;;;;;;;;;;;;;;;;;;;;;;;;;;;;;;;;;;;;;;;;;;;;;;;;;;;;;;;;;;;;;;;;;;;;;;;;;;;;;;;;;;;;;;;;;;;;;6,6;ppm;Unknown;15;ppm;Unknown;;;;;;;;;;;;;0,01;ppm;INAA;;;;;;;;;;;;;;;;;;;;;;;;;;;;;;;;;;;;;;;;;;;;;;;;;;;;;;;;;;;;;;;;;;;;;;;;;;;;;;;;;;;;;;;;;;
GROSCAMP-W-238453;;GROSSMAN-CAMP;GROSSMAN, 1991;38,5153;-77,5375;0,001;;;CONTINENTAL_RIFT;;;;"AAS; COL; ICP; INAA; TITR; Unknown";WHOLE ROCK;IGNEOUS:VOLCANIC:MAFIC;DIABASE;;53,7;wt%;COL;1,32;wt%;COL;19,3;wt%;COL;;;;3,39;wt%;Unknown;;;;4,8;wt%;TITR;;;;;;;0,15;wt%;AAS;1,65;wt%;AAS;6,03;wt%;Unknown;;;;4,34;wt%;Unknown;2,66;wt%;AAS;0,22;wt%;COL;;;;;;;;;;0,32;wt%;TITR;1,6;wt%;TITR;;;;;;;;;;8;ppm;Unknown;22,2;ppm;Unknown;115;ppm;Unknown;;;;71;ppm;Unknown;3,2;ppm;INAA;;;;;;;;;;;;;;;;;;;;;;;;;;;;;;;;;;;;;;;;;;;;;;;;;;;;;;;;;;;;;;;;;;;;;;;;;;;;;;;;;;;;;;;;;;;;;;;;;;;;;;;;;;;;;;;;;;;;;;;;;;;;;;;18,5;ppm;INAA;36;ppm;INAA;;;;21;ppm;INAA;5,2;ppm;INAA;1,85;ppm;INAA;;;;0,98;ppm;INAA;;;;;;;;;;;;;3,1;ppm;INAA;0,43;ppm;INAA;0,01;ppm;TITR;0,03;ppm;INAA;0,04;ppm;INAA;;;;;;;;;;;;;;;;;;;;;;3,2;ppm;INAA;;;;;;;510;ppm;Unknown;;;;;;;;;;;;;22,2;ppm;Unknown;2,6;ppm;Unknown;0,63;ppm;INAA;115;ppm;Unknown;;;;;;;3,8;ppm;INAA;;;;;;;;;;;;;;;;;;;;;;9,6;ppm;ICP;8;ppm;Unknown;;;;;;;;;;13;ppm;Unknown;10;ppm;Unknown;109;ppm;Unknown;;;;;;;;;;;;;0,25;ppm;INAA;17,2;ppm;INAA;;;;600;ppm;Unknown;0,82;ppm;INAA;3,7;ppm;INAA;;;;;;;0,76;ppm;INAA;;;;;;;31;ppm;Unknown;71;ppm;Unknown;148;ppm;Unknown;;;;;;;;;;;;;;;;;;;;;;;;;3,2;ppm;INAA;3,2;ppm;INAA;;;;0,32;wt%;TITR;1,6;wt%;TITR;0,32;wt%;TITR;1,6;wt%;TITR;;;
GROSCAMP-W-238454;;GROSSMAN-CAMP;GROSSMAN, 1991;38,5153;-77,5375;0,001;;;CONTINENTAL_RIFT;;;;"AAS; COL; ICP; ICPMS; INAA; TITR; Unknown";WHOLE ROCK;IGNEOUS:VOLCANIC:MAFIC;DIABASE;;52,1;wt%;COL;1,84;wt%;COL;15,1;wt%;COL;;;;4,26;wt%;Unknown;;;;8,9;wt%;TITR;;;;;;;0,17;wt%;AAS;3,48;wt%;AAS;9,41;wt%;Unknown;;;;2,74;wt%;Unknown;0,87;wt%;AAS;0,2;wt%;COL;;;;;;;;;;0,53;wt%;TITR;1,1;wt%;TITR;;;;;;;;;;17;ppm;Unknown;45;ppm;Unknown;166;ppm;Unknown;;;;106;ppm;Unknown;3,7;ppm;INAA;;;;0,02;ppm;INAA;;;;;;;;;;;;;;;;;;;;;;;;;;;;;;;;;;;;;;;;;;;;;;;;;;;;;;;;;;;;;;;;;;;;;;;;;;;;;;;;;;;;;;;;;;;;;;;;;;;;;;;;;;;;;;;;;;;;;;;;;16,9;ppm;INAA;35;ppm;INAA;;;;20;ppm;INAA;5,1;ppm;INAA;1,5;ppm;INAA;;;;0,89;ppm;INAA;;;;;;;;;;;;;3,1;ppm;INAA;0,47;ppm;INAA;;;;0,03;ppm;INAA;0,12;ppm;INAA;;;;;;;;;;;;;;;;;;;;;;3,7;ppm;INAA;;;;;;;257;ppm;Unknown;;;;;;;;;;;;;45;ppm;Unknown;9,4;ppm;Unknown;1,7;ppm;INAA;166;ppm;Unknown;;;;;;;3,7;ppm;INAA;;;;;;;;;;;;;;;;;;;;;;11;ppm;ICP;17;ppm;Unknown;;;;;;;;;;17;ppm;Unknown;4,8;ppm;Unknown;27;ppm;Unknown;;;;0,6;ppm;Unknown;0,5;ppm;ICPMS;0,02;ppm;INAA;0,29;ppm;INAA;34;ppm;INAA;;;;240;ppm;Unknown;0,8;ppm;INAA;3,4;ppm;INAA;;;;;;;0,79;ppm;INAA;;;;;;;33;ppm;Unknown;106;ppm;Unknown;146;ppm;Unknown;;;;;;;;;;;;;;;;;;;;;;;;;3,7;ppm;INAA;3,7;ppm;INAA;;;;0,53;wt%;TITR;1,1;wt%;TITR;0,53;wt%;TITR;1,1;wt%;TITR;;;
GROSCAMP-W-238455;;GROSSMAN-CAMP;GROSSMAN, 1991;39,7236;-77,3653;0,001;;;CONTINENTAL_RIFT;;;;"AAS; COL; ICP; INAA; TITR; Unknown";WHOLE ROCK;IGNEOUS:VOLCANIC:MAFIC;DIABASE;;71,7;wt%;COL;0,69;wt%;COL;12;wt%;COL;;;;5,23;wt%;Unknown;;;;1,6;wt%;TITR;;;;;;;;;;0,18;wt%;AAS;0,81;wt%;Unknown;;;;7,05;wt%;Unknown;0,08;wt%;AAS;0,14;wt%;COL;;;;;;;;;;0,27;wt%;TITR;0,49;wt%;TITR;;;;;;;;;;20;ppm;Unknown;8,6;ppm;Unknown;41;ppm;Unknown;;;;36;ppm;Unknown;2,7;ppm;INAA;;;;;;;;;;;;;;;;;;;;;;;;;;;;;;;;;;;;;;;;;;;;;;;;;;;;;;;;;;;;;;;;;;;;;;;;;;;;;;;;;;;;;;;;;;;;;;;;;;;;;;;;;;;;;;;;;;;;;;;;;;;;;;;40;ppm;INAA;88;ppm;INAA;;;;48;ppm;INAA;12;ppm;INAA;2,04;ppm;INAA;;;;2,2;ppm;INAA;;;;;;;;;;;;;6,2;ppm;INAA;0,79;ppm;INAA;;;;0,02;ppm;INAA;0,01;ppm;INAA;;;;;;;;;;;;;;;;;;;;;;2,7;ppm;INAA;;;;;;;40;ppm;Unknown;;;;;;;;;;;;;8,6;ppm;Unknown;;;;0,33;ppm;INAA;41;ppm;Unknown;;;;;;;8,9;ppm;INAA;;;;;;;;;;;;;;;;;;;;;;23;ppm;ICP;20;ppm;Unknown;;;;;;;;;;;;;1;ppm;Unknown;4,8;ppm;Unknown;;;;;;;;;;;;;0,12;ppm;INAA;8,8;ppm;INAA;;;;31;ppm;Unknown;1,98;ppm;INAA;12,4;ppm;INAA;;;;;;;1,9;ppm;INAA;;;;;;;67;ppm;Unknown;36;ppm;Unknown;289;ppm;Unknown;;;;;;;;;;;;;;;;;;;;;;;;;2,7;ppm;INAA;2,7;ppm;INAA;;;;0,27;wt%;TITR;0,49;wt%;TITR;0,27;wt%;TITR;0,49;wt%;TITR;;;