SAMPLE ID;IGSN;EXPEDITION ID;REFERENCES;LATITUDE;LONGITUDE;LOC PREC;MIN ELEVATION;MAX ELEVATION;TECTONIC SETTING;MIN AGE;AGE;MAX AGE;METHOD;ANALYZED MATERIAL;ROCK TYPE;ROCK NAME;MINERAL;SIO2;SIO2 Units;SIO2 Method;TIO2;TIO2 Units;TIO2 Method;AL2O3;AL2O3 Units;AL2O3 Method;CR2O3;CR2O3 Units;CR2O3 Method;FE2O3;FE2O3 Units;FE2O3 Method;FE2O3T;FE2O3T Units;FE2O3T Method;FEO;FEO Units;FEO Method;FEOT;FEOT Units;FEOT Method;NIO;NIO Units;NIO Method;MNO;MNO Units;MNO Method;MGO;MGO Units;MGO Method;CAO;CAO Units;CAO Method;SRO;SRO Units;SRO Method;NA2O;NA2O Units;NA2O Method;K2O;K2O Units;K2O Method;P2O5;P2O5 Units;P2O5 Method;BAO;BAO Units;BAO Method;LOI;LOI Units;LOI Method;H2O;H2O Units;H2O Method;H2O_M;H2O_M Units;H2O_M Method;H2O_P;H2O_P Units;H2O_P Method;SO3;SO3 Units;SO3 Method;COO;COO Units;COO Method;MN;MN Units;MN Method;NI;NI Units;NI Method;CO;CO Units;CO Method;CU;CU Units;CU Method;CD;CD Units;CD Method;ZN;ZN Units;ZN Method;AS;AS Units;AS Method;AG;AG Units;AG Method;S;S Units;S Method;ZRO2;ZRO2 Units;ZRO2 Method;AL;AL Units;AL Method;CA;CA Units;CA Method;SR87_SR86;SR87_SR86 Units;SR87_SR86 Method;SR87_SR86_INI;SR87_SR86_INI Units;SR87_SR86_INI Method;RB87_SR86;RB87_SR86 Units;RB87_SR86 Method;ND143_ND144;ND143_ND144 Units;ND143_ND144 Method;ND143_ND144_INI;ND143_ND144_INI Units;ND143_ND144_INI Method;SM147_ND144;SM147_ND144 Units;SM147_ND144 Method;E_ND;E_ND Units;E_ND Method;E_ND_INI;E_ND_INI Units;E_ND_INI Method;PB204_PB206;PB204_PB206 Units;PB204_PB206 Method;PB206_PB204;PB206_PB204 Units;PB206_PB204 Method;PB206_PB204_INI;PB206_PB204_INI Units;PB206_PB204_INI Method;PB207_PB204;PB207_PB204 Units;PB207_PB204 Method;PB207_PB204_INI;PB207_PB204_INI Units;PB207_PB204_INI Method;PB207_PB206;PB207_PB206 Units;PB207_PB206 Method;PB208_PB204;PB208_PB204 Units;PB208_PB204 Method;PB208_PB204_INI;PB208_PB204_INI Units;PB208_PB204_INI Method;PB208_PB206;PB208_PB206 Units;PB208_PB206 Method;HF176_HF177;HF176_HF177 Units;HF176_HF177 Method;RE187_OS188;RE187_OS188 Units;RE187_OS188 Method;OS187_OS188;OS187_OS188 Units;OS187_OS188 Method;OS187_OS188_INI;OS187_OS188_INI Units;OS187_OS188_INI Method;G_OS;G_OS Units;G_OS Method;G_OS_INI;G_OS_INI Units;G_OS_INI Method;ND143_ND144_INI;ND143_ND144_INI Units;ND143_ND144_INI Method;PB206_PB204_INI;PB206_PB204_INI Units;PB206_PB204_INI Method;PB207_PB204_INI;PB207_PB204_INI Units;PB207_PB204_INI Method;PB208_PB204_INI;PB208_PB204_INI Units;PB208_PB204_INI Method;SR87_SR86_INI;SR87_SR86_INI Units;SR87_SR86_INI Method;HE;HE Units;HE Method;HE3;HE3 Units;HE3 Method;HE3_HE4_R_RA;HE3_HE4_R_RA Units;HE3_HE4_R_RA Method;AR36;AR36 Units;AR36 Method;AR40;AR40 Units;AR40 Method;AR40_AR36;AR40_AR36 Units;AR40_AR36 Method;NE20;NE20 Units;NE20 Method;NE20_NE22;NE20_NE22 Units;NE20_NE22 Method;NE21_NE22;NE21_NE22 Units;NE21_NE22 Method;LA;LA Units;LA Method;CE;CE Units;CE Method;PR;PR Units;PR Method;ND;ND Units;ND Method;SM;SM Units;SM Method;EU;EU Units;EU Method;GD;GD Units;GD Method;TB;TB Units;TB Method;DY;DY Units;DY Method;HO;HO Units;HO Method;ER;ER Units;ER Method;TM;TM Units;TM Method;YB;YB Units;YB Method;LU;LU Units;LU Method;CO2;CO2 Units;CO2 Method;F;F Units;F Method;CL;CL Units;CL Method;U238_PB204;U238_PB204 Units;U238_PB204 Method;TH230_TH232;TH230_TH232 Units;TH230_TH232 Method;RA226_ACTIVITY;RA226_ACTIVITY Units;RA226_ACTIVITY Method;PB210_RA226;PB210_RA226 Units;PB210_RA226 Method;PB210_ACTIVITY;PB210_ACTIVITY Units;PB210_ACTIVITY Method;AG;AG Units;AG Method;AL;AL Units;AL Method;AS;AS Units;AS Method;AU;AU Units;AU Method;B;B Units;B Method;BA;BA Units;BA Method;BE;BE Units;BE Method;BI;BI Units;BI Method;CA;CA Units;CA Method;CD;CD Units;CD Method;CO;CO Units;CO Method;CR;CR Units;CR Method;CS;CS Units;CS Method;CU;CU Units;CU Method;GA;GA Units;GA Method;GER;GER Units;GER Method;HF;HF Units;HF Method;INDIUM;INDIUM Units;INDIUM Method;IR;IR Units;IR Method;K;K Units;K Method;LI;LI Units;LI Method;MN;MN Units;MN Method;MO;MO Units;MO Method;NA;NA Units;NA Method;NB;NB Units;NB Method;NI;NI Units;NI Method;OS;OS Units;OS Method;P;P Units;P Method;PB;PB Units;PB Method;PD;PD Units;PD Method;PT;PT Units;PT Method;RB;RB Units;RB Method;RE;RE Units;RE Method;RH;RH Units;RH Method;RU;RU Units;RU Method;S;S Units;S Method;SB;SB Units;SB Method;SC;SC Units;SC Method;SN;SN Units;SN Method;SR;SR Units;SR Method;TA;TA Units;TA Method;TH;TH Units;TH Method;TI;TI Units;TI Method;TL;TL Units;TL Method;U;U Units;U Method;V;V Units;V Method;W;W Units;W Method;Y;Y Units;Y Method;ZN;ZN Units;ZN Method;ZR;ZR Units;ZR Method;DELTA_O18;DELTA_O18 Units;DELTA_O18 Method;DELTA_C13;DELTA_C13 Units;DELTA_C13 Method;DELTA_MO98;DELTA_MO98 Units;DELTA_MO98 Method;DELTA_ZN66;DELTA_ZN66 Units;DELTA_ZN66 Method;DELTA_ZN68;DELTA_ZN68 Units;DELTA_ZN68 Method;OS188;OS188 Units;OS188 Method;FE3P_FET;FE3P_FET Units;FE3P_FET Method;TI;TI Units;TI Method;AS;AS Units;AS Method;AS;AS Units;AS Method;GER;GER Units;GER Method;H2O_M;H2O_M Units;H2O_M Method;H2O_P;H2O_P Units;H2O_P Method;H2O_M;H2O_M Units;H2O_M Method;H2O_P;H2O_P Units;H2O_P Method;INDIUM;INDIUM Units;INDIUM Method
GROSCAMP-W-243401;;GROSSMAN-CAMP;GROSSMAN, 1991;36,9833;-79,15;0,001;;;CONTINENTAL_RIFT;;;;"AAS; COL; ES; ICP; INAA; Unknown";WHOLE ROCK;IGNEOUS:VOLCANIC:MAFIC;DIABASE;;52,53;wt%;COL;0,94;wt%;COL;13,67;wt%;COL;;;;;;;12,83;wt%;Unknown;;;;;;;;;;0,23;wt%;AAS;6,66;wt%;AAS;9,8;wt%;Unknown;;;;2,2;wt%;Unknown;0,54;wt%;AAS;0,13;wt%;COL;;;;;;;;;;;;;;;;;;;;;;;;;56;ppm;Unknown;48;ppm;Unknown;61;ppm;Unknown;;;;93;ppm;Unknown;1,6;ppm;INAA;;;;;;;;;;;;;;;;;;;;;;;;;;;;;;;;;;;;;;;;;;;;;;;;;;;;;;;;;;;;;;;;;;;;;;;;;;;;;;;;;;;;;;;;;;;;;;;;;;;;;;;;;;;;;;;;;;;;;;;;;;;;;;;8,7;ppm;INAA;19;ppm;INAA;;;;9,8;ppm;INAA;2,84;ppm;INAA;0,93;ppm;INAA;;;;0,64;ppm;INAA;;;;;;;;;;;;;2,7;ppm;INAA;0,38;ppm;INAA;;;;0,02;ppm;INAA;0,04;ppm;INAA;;;;;;;;;;;;;;;;;;;;;;1,6;ppm;INAA;;;;31;ppm;ES;193;ppm;Unknown;;;;;;;;;;;;;48;ppm;Unknown;102;ppm;Unknown;1,7;ppm;INAA;61;ppm;Unknown;;;;;;;2,1;ppm;INAA;;;;;;;;;;;;;;;;;;;;;;4,4;ppm;ICP;56;ppm;Unknown;;;;;;;;;;1;ppm;Unknown;2;ppm;Unknown;33;ppm;Unknown;;;;;;;;;;;;;;;;46;ppm;INAA;;;;139;ppm;Unknown;0,35;ppm;INAA;1,9;ppm;INAA;;;;;;;0,61;ppm;INAA;;;;;;;25;ppm;Unknown;93;ppm;Unknown;88;ppm;Unknown;;;;;;;;;;;;;;;;;;;;;;;;;1,6;ppm;INAA;1,6;ppm;INAA;;;;;;;;;;;;;;;;;;
GROSCAMP-W-243402;;GROSSMAN-CAMP;GROSSMAN, 1991;37;-79,15;0,001;;;CONTINENTAL_RIFT;;;;"AAS; COL; ICP; INAA; Unknown";WHOLE ROCK;IGNEOUS:VOLCANIC:MAFIC;DIABASE;;52,16;wt%;COL;1,06;wt%;COL;13,57;wt%;COL;;;;;;;13,56;wt%;Unknown;;;;;;;;;;0,22;wt%;AAS;6,31;wt%;AAS;9,94;wt%;Unknown;;;;2,39;wt%;Unknown;0,55;wt%;AAS;0,13;wt%;COL;;;;;;;;;;;;;;;;;;;;;;;;;48;ppm;Unknown;47;ppm;Unknown;54;ppm;Unknown;;;;71;ppm;Unknown;;;;;;;0,06;ppm;INAA;;;;;;;;;;;;;;;;;;;;;;;;;;;;;;;;;;;;;;;;;;;;;;;;;;;;;;;;;;;;;;;;;;;;;;;;;;;;;;;;;;;;;;;;;;;;;;;;;;;;;;;;;;;;;;;;;;;;;;;;;9,6;ppm;INAA;20;ppm;INAA;;;;12;ppm;INAA;2,99;ppm;INAA;0,98;ppm;INAA;;;;0,7;ppm;INAA;;;;;;;;;;;;;2,9;ppm;INAA;0,41;ppm;INAA;;;;0,01;ppm;INAA;;;;;;;;;;;;;;;;;;;;;;;;;;;;;;;;;;142;ppm;Unknown;;;;;;;;;;;;;47;ppm;Unknown;83;ppm;Unknown;0,86;ppm;INAA;54;ppm;Unknown;;;;;;;2,2;ppm;INAA;;;;;;;;;;;;;;;;;;;;;;5,4;ppm;ICP;48;ppm;Unknown;;;;;;;;;;1,5;ppm;Unknown;2,2;ppm;Unknown;19;ppm;Unknown;;;;;;;;;;0,06;ppm;INAA;0,22;ppm;INAA;45;ppm;INAA;;;;157;ppm;Unknown;0,45;ppm;INAA;2,2;ppm;INAA;;;;;;;0,6;ppm;INAA;;;;;;;29;ppm;Unknown;71;ppm;Unknown;86;ppm;Unknown;;;;;;;;;;;;;;;;;;;;;;;;;;;;;;;;;;;;;;;;;;;;;;;;
GROSCAMP-W-243403;;GROSSMAN-CAMP;GROSSMAN, 1991;37;-79,15;0,001;;;CONTINENTAL_RIFT;;;;"AAS; COL; ES; ICP; INAA; Unknown";WHOLE ROCK;IGNEOUS:VOLCANIC:MAFIC;DIABASE;;52,9;wt%;COL;1,01;wt%;COL;13,8;wt%;COL;;;;;;;13,19;wt%;Unknown;;;;;;;;;;0,21;wt%;AAS;6,26;wt%;AAS;9,74;wt%;Unknown;;;;2,31;wt%;Unknown;0,56;wt%;AAS;0,13;wt%;COL;;;;;;;;;;;;;;;;;;;;;;;;;51;ppm;Unknown;51;ppm;Unknown;58;ppm;Unknown;;;;77;ppm;Unknown;;;;;;;0,08;ppm;INAA;;;;;;;;;;;;;;;;;;;;;;;;;;;;;;;;;;;;;;;;;;;;;;;;;;;;;;;;;;;;;;;;;;;;;;;;;;;;;;;;;;;;;;;;;;;;;;;;;;;;;;;;;;;;;;;;;;;;;;;;;9,8;ppm;INAA;21;ppm;INAA;;;;11;ppm;INAA;3;ppm;INAA;1;ppm;INAA;;;;0,76;ppm;INAA;;;;;;;;;;;;;3,1;ppm;INAA;0,47;ppm;INAA;;;;0,02;ppm;INAA;;;;;;;;;;;;;;;;;;;;;;;;;;;;;;;17,1;ppm;ES;136;ppm;Unknown;;;;;;;;;;;;;51;ppm;Unknown;81;ppm;Unknown;0,85;ppm;INAA;58;ppm;Unknown;;;;;;;2,3;ppm;INAA;;;;;;;;;;;;;;;;;;;;;;4,9;ppm;ICP;51;ppm;Unknown;;;;;;;;;;1,5;ppm;Unknown;1,4;ppm;Unknown;13;ppm;Unknown;;;;;;;;;;0,08;ppm;INAA;;;;48;ppm;INAA;;;;146;ppm;Unknown;0,45;ppm;INAA;2,3;ppm;INAA;;;;;;;;;;;;;;;;30;ppm;Unknown;77;ppm;Unknown;96;ppm;Unknown;;;;;;;;;;;;;;;;;;;;;;;;;;;;;;;;;;;;;;;;;;;;;;;;
GROSCAMP-W-243404;;GROSSMAN-CAMP;GROSSMAN, 1991;36,9667;-79,15;0,001;;;CONTINENTAL_RIFT;;;;"AAS; COL; ICP; INAA; Unknown";WHOLE ROCK;IGNEOUS:VOLCANIC:MAFIC;DIABASE;;52,95;wt%;COL;1,03;wt%;COL;14,37;wt%;COL;;;;;;;13,45;wt%;Unknown;;;;;;;;;;0,21;wt%;AAS;5,58;wt%;AAS;9,63;wt%;Unknown;;;;2,57;wt%;Unknown;0,69;wt%;AAS;0,14;wt%;COL;;;;;;;;;;;;;;;;;;;;;;;;;45;ppm;Unknown;47;ppm;Unknown;63;ppm;Unknown;;;;85;ppm;Unknown;1,7;ppm;INAA;;;;0,06;ppm;INAA;;;;;;;;;;;;;;;;;;;;;;;;;;;;;;;;;;;;;;;;;;;;;;;;;;;;;;;;;;;;;;;;;;;;;;;;;;;;;;;;;;;;;;;;;;;;;;;;;;;;;;;;;;;;;;;;;;;;;;;;;11;ppm;INAA;21,4;ppm;INAA;;;;12;ppm;INAA;3,3;ppm;INAA;1,07;ppm;INAA;;;;0,78;ppm;INAA;;;;;;;;;;;;;3,3;ppm;INAA;0,48;ppm;INAA;;;;0,02;ppm;INAA;;;;;;;;;;;;;;;;;;;;;;;;;1,7;ppm;INAA;;;;;;;157;ppm;Unknown;;;;;;;;;;;;;47;ppm;Unknown;74;ppm;Unknown;1,1;ppm;INAA;63;ppm;Unknown;;;;;;;2,4;ppm;INAA;;;;;;;;;;;;;;;;;;;;;;5,2;ppm;ICP;45;ppm;Unknown;;;;;;;;;;0,7;ppm;Unknown;1,8;ppm;Unknown;19;ppm;Unknown;;;;;;;;;;0,06;ppm;INAA;;;;44;ppm;INAA;;;;153;ppm;Unknown;0,41;ppm;INAA;2,2;ppm;INAA;;;;;;;;;;;;;;;;37;ppm;Unknown;85;ppm;Unknown;89;ppm;Unknown;;;;;;;;;;;;;;;;;;;;;;;;;1,7;ppm;INAA;1,7;ppm;INAA;;;;;;;;;;;;;;;;;;
GROSCAMP-W-243405;;GROSSMAN-CAMP;GROSSMAN, 1991;36,6167;-79,15;0,001;;;CONTINENTAL_RIFT;;;;"AAS; COL; ES; ICP; INAA; Unknown";WHOLE ROCK;IGNEOUS:VOLCANIC:MAFIC;DIABASE;;53,25;wt%;COL;1,04;wt%;COL;14,02;wt%;COL;;;;;;;13,35;wt%;Unknown;;;;;;;;;;0,21;wt%;AAS;5,97;wt%;AAS;9,68;wt%;Unknown;;;;2,4;wt%;Unknown;0,64;wt%;AAS;0,14;wt%;COL;;;;;;;;;;;;;;;;;;;;;;;;;48;ppm;Unknown;48;ppm;Unknown;64;ppm;Unknown;;;;84;ppm;Unknown;;;;;;;0,08;ppm;INAA;;;;;;;;;;;;;;;;;;;;;;;;;;;;;;;;;;;;;;;;;;;;;;;;;;;;;;;;;;;;;;;;;;;;;;;;;;;;;;;;;;;;;;;;;;;;;;;;;;;;;;;;;;;;;;;;;;;;;;;;;9,8;ppm;INAA;21;ppm;INAA;;;;11;ppm;INAA;3;ppm;INAA;1,02;ppm;INAA;;;;0,71;ppm;INAA;;;;;;;;;;;;;3;ppm;INAA;0,45;ppm;INAA;;;;0,02;ppm;INAA;;;;;;;;;;;;;;;;;;;;;;;;;;;;;;;24,1;ppm;ES;148;ppm;Unknown;;;;;;;;;;;;;48;ppm;Unknown;79;ppm;Unknown;1,1;ppm;INAA;64;ppm;Unknown;;;;;;;2,43;ppm;INAA;;;;;;;;;;;;;;;;;;;;;;5,7;ppm;ICP;48;ppm;Unknown;;;;;;;;;;1,1;ppm;Unknown;2,4;ppm;Unknown;15;ppm;Unknown;;;;;;;;;;0,08;ppm;INAA;;;;46;ppm;INAA;;;;151;ppm;Unknown;0,39;ppm;INAA;2,3;ppm;INAA;;;;;;;0,55;ppm;INAA;;;;;;;28;ppm;Unknown;84;ppm;Unknown;89;ppm;Unknown;;;;;;;;;;;;;;;;;;;;;;;;;;;;;;;;;;;;;;;;;;;;;;;;
GROSCAMP-W-243406;;GROSSMAN-CAMP;GROSSMAN, 1991;36,95;-79,15;0,001;;;CONTINENTAL_RIFT;;;;"AAS; COL; ICP; INAA; Unknown";WHOLE ROCK;IGNEOUS:VOLCANIC:MAFIC;DIABASE;;52,61;wt%;COL;1;wt%;COL;14,02;wt%;COL;;;;;;;13,27;wt%;Unknown;;;;;;;;;;0,21;wt%;AAS;6,21;wt%;AAS;10,11;wt%;Unknown;;;;2,42;wt%;Unknown;0,3;wt%;AAS;0,14;wt%;COL;;;;;;;;;;;;;;;;;;;;;;;;;51;ppm;Unknown;46;ppm;Unknown;67;ppm;Unknown;;;;82;ppm;Unknown;;;;;;;0,07;ppm;INAA;;;;;;;;;;;;;;;;;;;;;;;;;;;;;;;;;;;;;;;;;;;;;;;;;;;;;;;;;;;;;;;;;;;;;;;;;;;;;;;;;;;;;;;;;;;;;;;;;;;;;;;;;;;;;;;;;;;;;;;;;9,2;ppm;INAA;19;ppm;INAA;;;;11;ppm;INAA;2,97;ppm;INAA;0,92;ppm;INAA;;;;0,73;ppm;INAA;;;;;;;;;;;;;2,9;ppm;INAA;0,44;ppm;INAA;;;;0,02;ppm;INAA;;;;;;;;;;;;;;;;;;;;;;;;;;;;;;;;;;152;ppm;Unknown;;;;;;;;;;;;;46;ppm;Unknown;81;ppm;Unknown;;;;67;ppm;Unknown;;;;;;;2;ppm;INAA;;;;;;;;;;;;;;;;;;;;;;5,3;ppm;ICP;51;ppm;Unknown;;;;;;;;;;1,8;ppm;Unknown;1,5;ppm;Unknown;7;ppm;Unknown;;;;;;;;;;0,07;ppm;INAA;;;;44;ppm;INAA;;;;191;ppm;Unknown;0,39;ppm;INAA;1,9;ppm;INAA;;;;;;;0,74;ppm;INAA;;;;;;;24;ppm;Unknown;82;ppm;Unknown;92;ppm;Unknown;;;;;;;;;;;;;;;;;;;;;;;;;;;;;;;;;;;;;;;;;;;;;;;;
GROSCAMP-W-243407;;GROSSMAN-CAMP;GROSSMAN, 1991;36,95;-79,1167;0,001;;;CONTINENTAL_RIFT;;;;"AAS; COL; ES; ICP; INAA; Unknown";WHOLE ROCK;IGNEOUS:VOLCANIC:MAFIC;DIABASE;;47,23;wt%;COL;0,47;wt%;COL;16,56;wt%;COL;;;;;;;12,7;wt%;Unknown;;;;;;;;;;0,19;wt%;AAS;9,68;wt%;AAS;11,13;wt%;Unknown;;;;2,04;wt%;Unknown;0,22;wt%;AAS;0,08;wt%;COL;;;;;;;;;;;;;;;;;;;;;;;;;260;ppm;Unknown;58;ppm;Unknown;126;ppm;Unknown;;;;77;ppm;Unknown;;;;;;;0,07;ppm;INAA;;;;;;;;;;;;;;;;;;;;;;;;;;;;;;;;;;;;;;;;;;;;;;;;;;;;;;;;;;;;;;;;;;;;;;;;;;;;;;;;;;;;;;;;;;;;;;;;;;;;;;;;;;;;;;;;;;;;;;;;;4;ppm;INAA;8,5;ppm;INAA;;;;;;;1,29;ppm;INAA;0,47;ppm;INAA;;;;0,46;ppm;INAA;;;;;;;;;;;;;2,7;ppm;INAA;0,44;ppm;INAA;;;;0,01;ppm;INAA;;;;;;;;;;;;;;;;;;;;;;;;;;;;;;;32;ppm;ES;109;ppm;Unknown;;;;;;;;;;;;;58;ppm;Unknown;310;ppm;Unknown;1,7;ppm;INAA;126;ppm;Unknown;;;;;;;0,84;ppm;INAA;;;;;;;;;;;;;;;;;;;;;;1,5;ppm;ICP;260;ppm;Unknown;;;;;;;;;;4,7;ppm;Unknown;3,1;ppm;Unknown;3;ppm;Unknown;;;;;;;;;;0,07;ppm;INAA;;;;42;ppm;INAA;;;;77;ppm;Unknown;;;;0,33;ppm;INAA;;;;;;;;;;;;;;;;20;ppm;Unknown;77;ppm;Unknown;43;ppm;Unknown;;;;;;;;;;;;;;;;;;;;;;;;;;;;;;;;;;;;;;;;;;;;;;;;
GROSCAMP-W-243408;;GROSSMAN-CAMP;GROSSMAN, 1991;37,0167;-79,1167;0,001;;;CONTINENTAL_RIFT;;;;"AAS; COL; ICP; INAA; Unknown";WHOLE ROCK;IGNEOUS:VOLCANIC:MAFIC;DIABASE;;52,46;wt%;COL;0,93;wt%;COL;14;wt%;COL;;;;;;;12,87;wt%;Unknown;;;;;;;;;;0,23;wt%;AAS;6,73;wt%;AAS;9,7;wt%;Unknown;;;;2,27;wt%;Unknown;0,67;wt%;AAS;0,12;wt%;COL;;;;;;;;;;;;;;;;;;;;;;;;;59;ppm;Unknown;50;ppm;Unknown;71;ppm;Unknown;;;;125;ppm;Unknown;;;;;;;0,08;ppm;INAA;;;;;;;;;;;;;;;;;;;;;;;;;;;;;;;;;;;;;;;;;;;;;;;;;;;;;;;;;;;;;;;;;;;;;;;;;;;;;;;;;;;;;;;;;;;;;;;;;;;;;;;;;;;;;;;;;;;;;;;;;8,9;ppm;INAA;18;ppm;INAA;;;;10;ppm;INAA;2,8;ppm;INAA;0,9;ppm;INAA;;;;0,74;ppm;INAA;;;;;;;;;;;;;2,8;ppm;INAA;0,44;ppm;INAA;;;;0,02;ppm;INAA;0,12;ppm;INAA;;;;;;;;;;;;;;;;;;;;;;;;;;;;;;;146;ppm;Unknown;;;;;;;;;;;;;50;ppm;Unknown;98;ppm;Unknown;1,4;ppm;INAA;71;ppm;Unknown;;;;;;;2;ppm;INAA;;;;;;;;;;;;;;;;;;;;;;4,6;ppm;ICP;59;ppm;Unknown;;;;;;;;;;1,5;ppm;Unknown;3,6;ppm;Unknown;30;ppm;Unknown;;;;;;;;;;0,08;ppm;INAA;;;;43;ppm;INAA;;;;140;ppm;Unknown;0,34;ppm;INAA;1,9;ppm;INAA;;;;;;;0,28;ppm;INAA;;;;;;;31;ppm;Unknown;125;ppm;Unknown;86;ppm;Unknown;;;;;;;;;;;;;;;;;;;;;;;;;;;;;;;;;;;;;;;;;;;;;;;;
GROSCAMP-W-243409;;GROSSMAN-CAMP;GROSSMAN, 1991;38,525;-77,8083;0,001;;;CONTINENTAL_RIFT;;;;"AAS; COL; ES; ICP; INAA; Unknown";WHOLE ROCK;IGNEOUS:VOLCANIC:MAFIC;DIABASE;;51,42;wt%;COL;0,72;wt%;COL;15,4;wt%;COL;;;;;;;11,2;wt%;Unknown;;;;;;;;;;0;wt%;AAS;7,93;wt%;AAS;11,3;wt%;Unknown;;;;2,11;wt%;Unknown;0,35;wt%;AAS;0,03;wt%;COL;;;;;;;;;;;;;;;;;;;;;;;;;68;ppm;Unknown;46;ppm;Unknown;68;ppm;Unknown;;;;74;ppm;Unknown;;;;;;;0,05;ppm;INAA;;;;;;;;;;;;;;;;;;;;;;;;;;;;;;;;;;;;;;;;;;;;;;;;;;;;;;;;;;;;;;;;;;;;;;;;;;;;;;;;;;;;;;;;;;;;;;;;;;;;;;;;;;;;;;;;;;;;;;;;;5,5;ppm;INAA;11;ppm;INAA;;;;6,8;ppm;INAA;2;ppm;INAA;0,7;ppm;INAA;;;;0,47;ppm;INAA;;;;;;;;;;;;;2,1;ppm;INAA;0,29;ppm;INAA;;;;0,01;ppm;INAA;0,01;ppm;INAA;;;;;;;;;;;;;;;;;;;;;;;;;;;;36;ppm;ES;87;ppm;Unknown;;;;;;;;;;;;;46;ppm;Unknown;257;ppm;Unknown;0,51;ppm;INAA;68;ppm;Unknown;;;;;;;1,4;ppm;INAA;;;;;;;;;;;;;;;;;;;;;;2,8;ppm;ICP;68;ppm;Unknown;;;;;;;;;;;;;;;;12;ppm;Unknown;;;;;;;;;;0,05;ppm;INAA;;;;41;ppm;INAA;;;;130;ppm;Unknown;0,24;ppm;INAA;1,1;ppm;INAA;;;;;;;;;;;;;;;;27;ppm;Unknown;74;ppm;Unknown;64;ppm;Unknown;;;;;;;;;;;;;;;;;;;;;;;;;;;;;;;;;;;;;;;;;;;;;;;;
GROSCAMP-W-246944;;GROSSMAN-CAMP;GROSSMAN, 1991;38,526;-78,014;0,001;;;CONTINENTAL_RIFT;;;;Unknown;WHOLE ROCK;IGNEOUS:VOLCANIC:MAFIC;DIABASE;;;;;;;;;;;;;;;;;;;;;;;;;;;;;;;;;;;;;;;;;;;;;;;;;;;;;;;;;;;;;;;;;;;;;;;;;;24;ppm;Unknown;42;ppm;Unknown;180;ppm;Unknown;;;;;;;;;;;;;;;;;;;;;;;;;;;;;;;;;;;;;;;;;;;;;;;;;;;;;;;;;;;;;;;;;;;;;;;;;;;;;;;;;;;;;;;;;;;;;;;;;;;;;;;;;;;;;;;;;;;;;;;;;;;;;;;;;;;;;;;;;;;;;;;;;;;;;;;;;;;;;;;;;;;;;;;;;;;;;;;;;;;;;;;;;;;;;;;;;;;;;;;;;;;;;;;;;;;;;;;;;;;;;;;;;;;;;;;;42;ppm;Unknown;;;;;;;180;ppm;Unknown;;;;;;;;;;;;;;;;;;;;;;;;;;;;;;;;;;24;ppm;Unknown;;;;;;;;;;25;ppm;Unknown;6,6;ppm;Unknown;;;;;;;0,5;ppm;Unknown;;;;;;;;;;;;;;;;;;;;;;;;;;;;;;;;;;;;;;;;;;;;;;;;;;;;;;;;;;;;;;;;;;;;;;;;;;;;;;;;;;;;;;;;;;;;;;;;
GROSCAMP-W-243410;;GROSSMAN-CAMP;GROSSMAN, 1991;38,5236;-77,8083;0,001;;;CONTINENTAL_RIFT;;;;"AAS; COL; ES; ICP; INAA; Unknown";WHOLE ROCK;IGNEOUS:VOLCANIC:MAFIC;DIABASE;;54,94;wt%;COL;1,76;wt%;COL;12,21;wt%;COL;;;;;;;14,74;wt%;Unknown;;;;;;;;;;0;wt%;AAS;4,15;wt%;AAS;8,28;wt%;Unknown;;;;3,68;wt%;Unknown;0,34;wt%;AAS;0,3;wt%;COL;;;;;;;;;;;;;;;;;;;;;;;;;27;ppm;Unknown;35;ppm;Unknown;74;ppm;Unknown;;;;128;ppm;Unknown;3,1;ppm;INAA;;;;0,07;ppm;INAA;;;;;;;;;;;;;;;;;;;;;;;;;;;;;;;;;;;;;;;;;;;;;;;;;;;;;;;;;;;;;;;;;;;;;;;;;;;;;;;;;;;;;;;;;;;;;;;;;;;;;;;;;;;;;;;;;;;;;;;;;15,7;ppm;INAA;35;ppm;INAA;;;;16;ppm;INAA;6,1;ppm;INAA;1,41;ppm;INAA;;;;1,45;ppm;INAA;;;;;;;;;;;;;6,3;ppm;INAA;0,89;ppm;INAA;;;;0,02;ppm;INAA;0,07;ppm;INAA;;;;;;;;;;;;;;;;;;;;;;3,1;ppm;INAA;;;;40;ppm;ES;45;ppm;Unknown;;;;;;;;;;;;;35;ppm;Unknown;13;ppm;Unknown;;;;74;ppm;Unknown;;;;;;;4,9;ppm;INAA;;;;;;;;;;;;;;;;;;;;;;10;ppm;ICP;27;ppm;Unknown;;;;;;;;;;0,5;ppm;Unknown;;;;12;ppm;Unknown;;;;;;;;;;0,07;ppm;INAA;;;;47;ppm;INAA;;;;96;ppm;Unknown;0,78;ppm;INAA;4,4;ppm;INAA;;;;;;;1,3;ppm;INAA;;;;;;;69;ppm;Unknown;128;ppm;Unknown;183;ppm;Unknown;;;;;;;;;;;;;;;;;;;;;;;;;3,1;ppm;INAA;3,1;ppm;INAA;;;;;;;;;;;;;;;;;;
GROSCAMP-W-243411;;GROSSMAN-CAMP;GROSSMAN, 1991;38,5167;-77,8125;0,001;;;CONTINENTAL_RIFT;;;;"AAS; COL; ICP; INAA; Unknown";WHOLE ROCK;IGNEOUS:VOLCANIC:MAFIC;DIABASE;;50,5;wt%;COL;0,69;wt%;COL;15,59;wt%;COL;;;;;;;10,99;wt%;Unknown;;;;;;;;;;0;wt%;AAS;8,6;wt%;AAS;11,51;wt%;Unknown;;;;2,01;wt%;Unknown;0,31;wt%;AAS;0,07;wt%;COL;;;;;;;;;;;;;;;;;;;;;;;;;82;ppm;Unknown;47;ppm;Unknown;58;ppm;Unknown;;;;60;ppm;Unknown;;;;;;;0,03;ppm;INAA;;;;;;;;;;;;;;;;;;;;;;;;;;;;;;;;;;;;;;;;;;;;;;;;;;;;;;;;;;;;;;;;;;;;;;;;;;;;;;;;;;;;;;;;;;;;;;;;;;;;;;;;;;;;;;;;;;;;;;;;;4,8;ppm;INAA;11;ppm;INAA;;;;6;ppm;INAA;1,79;ppm;INAA;0,68;ppm;INAA;;;;0,44;ppm;INAA;;;;;;;;;;;;;1,8;ppm;INAA;0,26;ppm;INAA;;;;0,01;ppm;INAA;0,01;ppm;INAA;;;;;;;;;;;;;;;;;;;;;;;;;;;;;;;74;ppm;Unknown;;;;;;;;;;;;;47;ppm;Unknown;297;ppm;Unknown;0,63;ppm;INAA;58;ppm;Unknown;;;;;;;1,3;ppm;INAA;;;;;;;;;;;;;;;;;;;;;;2,7;ppm;ICP;82;ppm;Unknown;;;;;;;;;;0,6;ppm;Unknown;1,5;ppm;Unknown;19;ppm;Unknown;;;;;;;;;;0,03;ppm;INAA;;;;38;ppm;INAA;;;;143;ppm;Unknown;0,19;ppm;INAA;1,1;ppm;INAA;;;;;;;;;;;;;;;;28;ppm;Unknown;60;ppm;Unknown;61;ppm;Unknown;;;;;;;;;;;;;;;;;;;;;;;;;;;;;;;;;;;;;;;;;;;;;;;;
GROSCAMP-W-243412;;GROSSMAN-CAMP;GROSSMAN, 1991;38,5125;-77,825;0,001;;;CONTINENTAL_RIFT;;;;"AAS; COL; ES; ICP; INAA; Unknown";WHOLE ROCK;IGNEOUS:VOLCANIC:MAFIC;DIABASE;;51,46;wt%;COL;0,74;wt%;COL;15,37;wt%;COL;;;;;;;11,51;wt%;Unknown;;;;;;;;;;0;wt%;AAS;7,91;wt%;AAS;11,18;wt%;Unknown;;;;2,1;wt%;Unknown;0,38;wt%;AAS;0,08;wt%;COL;;;;;;;;;;;;;;;;;;;;;;;;;68;ppm;Unknown;48;ppm;Unknown;63;ppm;Unknown;;;;79;ppm;Unknown;;;;;;;0,05;ppm;INAA;;;;;;;;;;;;;;;;;;;;;;;;;;;;;;;;;;;;;;;;;;;;;;;;;;;;;;;;;;;;;;;;;;;;;;;;;;;;;;;;;;;;;;;;;;;;;;;;;;;;;;;;;;;;;;;;;;;;;;;;;5,6;ppm;INAA;12;ppm;INAA;;;;8,5;ppm;INAA;2,1;ppm;INAA;0,77;ppm;INAA;;;;0,51;ppm;INAA;;;;;;;;;;;;;2,3;ppm;INAA;0,33;ppm;INAA;;;;0,01;ppm;INAA;0,01;ppm;INAA;;;;;;;;;;;;;;;;;;;;;;;;;;;;15,1;ppm;ES;88;ppm;Unknown;;;;;;;;;;;;;48;ppm;Unknown;250;ppm;Unknown;0,6;ppm;INAA;63;ppm;Unknown;;;;;;;1,5;ppm;INAA;;;;;;;;;;;;;;;;;;;;;;2,7;ppm;ICP;68;ppm;Unknown;;;;;;;;;;;;;1,7;ppm;Unknown;15;ppm;Unknown;;;;;;;;;;0,05;ppm;INAA;;;;44;ppm;INAA;;;;137;ppm;Unknown;0,24;ppm;INAA;1,3;ppm;INAA;;;;;;;;;;;;;;;;24;ppm;Unknown;79;ppm;Unknown;62;ppm;Unknown;;;;;;;;;;;;;;;;;;;;;;;;;;;;;;;;;;;;;;;;;;;;;;;;