SAMPLE ID;IGSN;EXPEDITION ID;REFERENCES;LATITUDE;LONGITUDE;LOC PREC;MIN ELEVATION;MAX ELEVATION;TECTONIC SETTING;MIN AGE;AGE;MAX AGE;METHOD;ANALYZED MATERIAL;ROCK TYPE;ROCK NAME;MINERAL;SIO2;SIO2 Units;SIO2 Method;TIO2;TIO2 Units;TIO2 Method;AL2O3;AL2O3 Units;AL2O3 Method;CR2O3;CR2O3 Units;CR2O3 Method;FE2O3;FE2O3 Units;FE2O3 Method;FE2O3T;FE2O3T Units;FE2O3T Method;FEO;FEO Units;FEO Method;FEOT;FEOT Units;FEOT Method;NIO;NIO Units;NIO Method;MNO;MNO Units;MNO Method;MGO;MGO Units;MGO Method;CAO;CAO Units;CAO Method;SRO;SRO Units;SRO Method;NA2O;NA2O Units;NA2O Method;K2O;K2O Units;K2O Method;P2O5;P2O5 Units;P2O5 Method;BAO;BAO Units;BAO Method;LOI;LOI Units;LOI Method;H2O;H2O Units;H2O Method;H2O_M;H2O_M Units;H2O_M Method;H2O_P;H2O_P Units;H2O_P Method;SO3;SO3 Units;SO3 Method;COO;COO Units;COO Method;MN;MN Units;MN Method;NI;NI Units;NI Method;CO;CO Units;CO Method;CU;CU Units;CU Method;CD;CD Units;CD Method;ZN;ZN Units;ZN Method;AS;AS Units;AS Method;AG;AG Units;AG Method;S;S Units;S Method;ZRO2;ZRO2 Units;ZRO2 Method;AL;AL Units;AL Method;CA;CA Units;CA Method;SR87_SR86;SR87_SR86 Units;SR87_SR86 Method;SR87_SR86_INI;SR87_SR86_INI Units;SR87_SR86_INI Method;RB87_SR86;RB87_SR86 Units;RB87_SR86 Method;ND143_ND144;ND143_ND144 Units;ND143_ND144 Method;ND143_ND144_INI;ND143_ND144_INI Units;ND143_ND144_INI Method;SM147_ND144;SM147_ND144 Units;SM147_ND144 Method;E_ND;E_ND Units;E_ND Method;E_ND_INI;E_ND_INI Units;E_ND_INI Method;PB204_PB206;PB204_PB206 Units;PB204_PB206 Method;PB206_PB204;PB206_PB204 Units;PB206_PB204 Method;PB206_PB204_INI;PB206_PB204_INI Units;PB206_PB204_INI Method;PB207_PB204;PB207_PB204 Units;PB207_PB204 Method;PB207_PB204_INI;PB207_PB204_INI Units;PB207_PB204_INI Method;PB207_PB206;PB207_PB206 Units;PB207_PB206 Method;PB208_PB204;PB208_PB204 Units;PB208_PB204 Method;PB208_PB204_INI;PB208_PB204_INI Units;PB208_PB204_INI Method;PB208_PB206;PB208_PB206 Units;PB208_PB206 Method;HF176_HF177;HF176_HF177 Units;HF176_HF177 Method;RE187_OS188;RE187_OS188 Units;RE187_OS188 Method;OS187_OS188;OS187_OS188 Units;OS187_OS188 Method;OS187_OS188_INI;OS187_OS188_INI Units;OS187_OS188_INI Method;G_OS;G_OS Units;G_OS Method;G_OS_INI;G_OS_INI Units;G_OS_INI Method;ND143_ND144_INI;ND143_ND144_INI Units;ND143_ND144_INI Method;PB206_PB204_INI;PB206_PB204_INI Units;PB206_PB204_INI Method;PB207_PB204_INI;PB207_PB204_INI Units;PB207_PB204_INI Method;PB208_PB204_INI;PB208_PB204_INI Units;PB208_PB204_INI Method;SR87_SR86_INI;SR87_SR86_INI Units;SR87_SR86_INI Method;HE;HE Units;HE Method;HE3;HE3 Units;HE3 Method;HE3_HE4_R_RA;HE3_HE4_R_RA Units;HE3_HE4_R_RA Method;AR36;AR36 Units;AR36 Method;AR40;AR40 Units;AR40 Method;AR40_AR36;AR40_AR36 Units;AR40_AR36 Method;NE20;NE20 Units;NE20 Method;NE20_NE22;NE20_NE22 Units;NE20_NE22 Method;NE21_NE22;NE21_NE22 Units;NE21_NE22 Method;LA;LA Units;LA Method;CE;CE Units;CE Method;PR;PR Units;PR Method;ND;ND Units;ND Method;SM;SM Units;SM Method;EU;EU Units;EU Method;GD;GD Units;GD Method;TB;TB Units;TB Method;DY;DY Units;DY Method;HO;HO Units;HO Method;ER;ER Units;ER Method;TM;TM Units;TM Method;YB;YB Units;YB Method;LU;LU Units;LU Method;CO2;CO2 Units;CO2 Method;F;F Units;F Method;CL;CL Units;CL Method;U238_PB204;U238_PB204 Units;U238_PB204 Method;TH230_TH232;TH230_TH232 Units;TH230_TH232 Method;RA226_ACTIVITY;RA226_ACTIVITY Units;RA226_ACTIVITY Method;PB210_RA226;PB210_RA226 Units;PB210_RA226 Method;PB210_ACTIVITY;PB210_ACTIVITY Units;PB210_ACTIVITY Method;AG;AG Units;AG Method;AL;AL Units;AL Method;AS;AS Units;AS Method;AU;AU Units;AU Method;B;B Units;B Method;BA;BA Units;BA Method;BE;BE Units;BE Method;BI;BI Units;BI Method;CA;CA Units;CA Method;CD;CD Units;CD Method;CO;CO Units;CO Method;CR;CR Units;CR Method;CS;CS Units;CS Method;CU;CU Units;CU Method;GA;GA Units;GA Method;GER;GER Units;GER Method;HF;HF Units;HF Method;INDIUM;INDIUM Units;INDIUM Method;IR;IR Units;IR Method;K;K Units;K Method;LI;LI Units;LI Method;MN;MN Units;MN Method;MO;MO Units;MO Method;NA;NA Units;NA Method;NB;NB Units;NB Method;NI;NI Units;NI Method;OS;OS Units;OS Method;P;P Units;P Method;PB;PB Units;PB Method;PD;PD Units;PD Method;PT;PT Units;PT Method;RB;RB Units;RB Method;RE;RE Units;RE Method;RH;RH Units;RH Method;RU;RU Units;RU Method;S;S Units;S Method;SB;SB Units;SB Method;SC;SC Units;SC Method;SN;SN Units;SN Method;SR;SR Units;SR Method;TA;TA Units;TA Method;TH;TH Units;TH Method;TI;TI Units;TI Method;TL;TL Units;TL Method;U;U Units;U Method;V;V Units;V Method;W;W Units;W Method;Y;Y Units;Y Method;ZN;ZN Units;ZN Method;ZR;ZR Units;ZR Method;DELTA_O18;DELTA_O18 Units;DELTA_O18 Method;DELTA_C13;DELTA_C13 Units;DELTA_C13 Method;DELTA_MO98;DELTA_MO98 Units;DELTA_MO98 Method;DELTA_ZN66;DELTA_ZN66 Units;DELTA_ZN66 Method;DELTA_ZN68;DELTA_ZN68 Units;DELTA_ZN68 Method;OS188;OS188 Units;OS188 Method;FE3P_FET;FE3P_FET Units;FE3P_FET Method;TI;TI Units;TI Method;AS;AS Units;AS Method;AS;AS Units;AS Method;GER;GER Units;GER Method;H2O_M;H2O_M Units;H2O_M Method;H2O_P;H2O_P Units;H2O_P Method;H2O_M;H2O_M Units;H2O_M Method;H2O_P;H2O_P Units;H2O_P Method;INDIUM;INDIUM Units;INDIUM Method
GROSCAMP-W-243863;;GROSSMAN-CAMP;GROSSMAN, 1991;40,225;-76,4606;0,001;;;CONTINENTAL_RIFT;;;;"AAS; COL; ES; ICP; ICPMS; INAA; TITR; Unknown";WHOLE ROCK;IGNEOUS:VOLCANIC:MAFIC;DIABASE;;52,3;wt%;COL;0,85;wt%;COL;12,8;wt%;COL;;;;1,74;wt%;Unknown;;;;8,2;wt%;TITR;;;;;;;0,18;wt%;AAS;10,7;wt%;AAS;10,8;wt%;Unknown;;;;1,71;wt%;Unknown;0,43;wt%;AAS;0,1;wt%;COL;;;;;;;;;;0,13;wt%;TITR;0,18;wt%;TITR;;;;;;;;;;132;ppm;Unknown;52;ppm;Unknown;69;ppm;Unknown;;;;60;ppm;Unknown;;;;0,035;ppm;AAS;0,05;ppm;INAA;;;;;;;;;;;;;;;;;;;;;;;;;;;;;;;;;;;;;;;;;;;;;;;;;;;;;;;;;;;;;;;;;;;;;;;;;;;;;;;;;;;;;;;;;;;;;;;;;;;;;;;;;;;;;;;;;;;;;;;;;7,9;ppm;INAA;17;ppm;INAA;;;;9,8;ppm;INAA;2,55;ppm;INAA;0,84;ppm;INAA;;;;0,5;ppm;INAA;;;;;;;;;;;;;1,7;ppm;INAA;0,26;ppm;INAA;;;;0,02;ppm;INAA;0,01;ppm;INAA;;;;;;;;;;;;;;;;0,035;ppm;AAS;;;;;;;8,5;ppm;INAA;6,3;ppm;ES;117;ppm;Unknown;;;;;;;;;;;;;52;ppm;Unknown;720;ppm;Unknown;0,64;ppm;INAA;69;ppm;Unknown;18;ppm;ICP;;;;1,8;ppm;INAA;;;;1,2;ppm;ICPMS;;;;;;;;;;;;;;;;4,6;ppm;ICP;132;ppm;Unknown;;;;;;;;;;7,1;ppm;Unknown;16;ppm;Unknown;17;ppm;Unknown;;;;0,9;ppm;Unknown;;;;0,05;ppm;INAA;0,3;ppm;INAA;37;ppm;INAA;;;;163;ppm;Unknown;0,37;ppm;INAA;1,6;ppm;INAA;;;;;;;0,6;ppm;INAA;;;;;;;16;ppm;Unknown;60;ppm;Unknown;78;ppm;Unknown;;;;;;;;;;;;;;;;;;;;;;;;;;;;;;;;;;0,13;wt%;TITR;0,18;wt%;TITR;0,13;wt%;TITR;0,18;wt%;TITR;;;
GROSCAMP-W-243864;;GROSSMAN-CAMP;GROSSMAN, 1991;40,225;-76,4606;0,001;;;CONTINENTAL_RIFT;;;;"AAS; COL; ES; ICP; INAA; TITR; Unknown";WHOLE ROCK;IGNEOUS:VOLCANIC:MAFIC;DIABASE;;52,3;wt%;COL;0,87;wt%;COL;13,5;wt%;COL;;;;1,89;wt%;Unknown;;;;7,8;wt%;TITR;;;;;;;0,17;wt%;AAS;9,44;wt%;AAS;11,5;wt%;Unknown;;;;1,79;wt%;Unknown;0,45;wt%;AAS;0,1;wt%;COL;;;;;;;;;;0,09;wt%;TITR;0,12;wt%;TITR;;;;;;;;;;115;ppm;Unknown;48;ppm;Unknown;75;ppm;Unknown;;;;66;ppm;Unknown;;;;0,033;ppm;AAS;0,04;ppm;INAA;;;;;;;;;;;;;;;;;;;;;;;;;;;;;;;;;;;;;;;;;;;;;;;;;;;;;;;;;;;;;;;;;;;;;;;;;;;;;;;;;;;;;;;;;;;;;;;;;;;;;;;;;;;;;;;;;;;;;;;;;8,3;ppm;INAA;18;ppm;INAA;;;;9;ppm;INAA;2,66;ppm;INAA;0,85;ppm;INAA;;;;0,51;ppm;INAA;;;;;;;;;;;;;1,8;ppm;INAA;0,27;ppm;INAA;0,03;ppm;TITR;0,02;ppm;INAA;0,01;ppm;INAA;;;;;;;;;;;;;;;;0,033;ppm;AAS;;;;;;;;;;9,5;ppm;ES;121;ppm;Unknown;;;;;;;;;;;;;48;ppm;Unknown;590;ppm;Unknown;0,63;ppm;INAA;75;ppm;Unknown;18;ppm;ICP;;;;1,94;ppm;INAA;;;;;;;;;;;;;;;;;;;;;;5,3;ppm;ICP;115;ppm;Unknown;;;;;;;;;;5,8;ppm;Unknown;14;ppm;Unknown;20;ppm;Unknown;;;;;;;;;;0,04;ppm;INAA;0,15;ppm;INAA;38;ppm;INAA;;;;172;ppm;Unknown;0,4;ppm;INAA;1,7;ppm;INAA;;;;;;;0,3;ppm;INAA;;;;;;;16;ppm;Unknown;66;ppm;Unknown;80;ppm;Unknown;;;;;;;;;;;;;;;;;;;;;;;;;;;;;;;;;;0,09;wt%;TITR;0,12;wt%;TITR;0,09;wt%;TITR;0,12;wt%;TITR;;;
GROSCAMP-W-243865;;GROSSMAN-CAMP;GROSSMAN, 1991;40,2;-76,0528;0,001;;;CONTINENTAL_RIFT;;;;"AAS; COL; ES; ICP; INAA; TITR; Unknown";WHOLE ROCK;IGNEOUS:VOLCANIC:MAFIC;DIABASE;;52;wt%;COL;0,73;wt%;COL;12,9;wt%;COL;;;;1,62;wt%;Unknown;;;;7,5;wt%;TITR;;;;;;;0,17;wt%;AAS;10,5;wt%;AAS;12,4;wt%;Unknown;;;;1,6;wt%;Unknown;0,33;wt%;AAS;0,08;wt%;COL;;;;;;;;;;0,08;wt%;TITR;0,21;wt%;TITR;;;;;;;;;;130;ppm;Unknown;49;ppm;Unknown;59;ppm;Unknown;;;;60;ppm;Unknown;;;;0,022;ppm;AAS;0,05;ppm;INAA;;;;;;;;;;;;;;;;;;;;;;;;;;;;;;;;;;;;;;;;;;;;;;;;;;;;;;;;;;;;;;;;;;;;;;;;;;;;;;;;;;;;;;;;;;;;;;;;;;;;;;;;;;;;;;;;;;;;;;;;;6,1;ppm;INAA;14;ppm;INAA;;;;7,2;ppm;INAA;2,1;ppm;INAA;0,7;ppm;INAA;;;;0,44;ppm;INAA;;;;;;;;;;;;;1,6;ppm;INAA;0,22;ppm;INAA;;;;0,01;ppm;INAA;0,02;ppm;INAA;;;;;;;;;;;;;;;;0,022;ppm;AAS;;;;;;;;;;8,3;ppm;ES;96;ppm;Unknown;;;;;;;;;;;;;49;ppm;Unknown;570;ppm;Unknown;0,48;ppm;INAA;59;ppm;Unknown;17;ppm;ICP;;;;1,5;ppm;INAA;;;;;;;;;;;;;;;;;;;;;;3,8;ppm;ICP;130;ppm;Unknown;;;;;;;;;;3,5;ppm;Unknown;11;ppm;Unknown;14;ppm;Unknown;;;;;;;;;;0,05;ppm;INAA;0,15;ppm;INAA;41;ppm;INAA;;;;158;ppm;Unknown;0,31;ppm;INAA;1,3;ppm;INAA;;;;;;;;;;;;;;;;14;ppm;Unknown;60;ppm;Unknown;62;ppm;Unknown;;;;;;;;;;;;;;;;;;;;;;;;;;;;;;;;;;0,08;wt%;TITR;0,21;wt%;TITR;0,08;wt%;TITR;0,21;wt%;TITR;;;
GROSCAMP-W-243866;;GROSSMAN-CAMP;GROSSMAN, 1991;40,23;-75,99;0,001;;;CONTINENTAL_RIFT;;;;"AAS; COL; ES; ICP; INAA; TITR; Unknown";WHOLE ROCK;IGNEOUS:VOLCANIC:MAFIC;DIABASE;;52,4;wt%;COL;0,81;wt%;COL;9,93;wt%;COL;;;;2,59;wt%;Unknown;;;;8,4;wt%;TITR;;;;;;;0,2;wt%;AAS;14,4;wt%;AAS;9,46;wt%;Unknown;;;;1,42;wt%;Unknown;0,35;wt%;AAS;0,09;wt%;COL;;;;;;;;;;0,12;wt%;TITR;0,25;wt%;TITR;;;;;;;;;;201;ppm;Unknown;64;ppm;Unknown;67;ppm;Unknown;;;;65;ppm;Unknown;;;;0,022;ppm;AAS;0,05;ppm;INAA;;;;;;;;;;;;;;;;;;;;;;;;;;;;;;;;;;;;;;;;;;;;;;;;;;;;;;;;;;;;;;;;;;;;;;;;;;;;;;;;;;;;;;;;;;;;;;;;;;;;;;;;;;;;;;;;;;;;;;;;;6,9;ppm;INAA;16;ppm;INAA;;;;8,1;ppm;INAA;2,33;ppm;INAA;0,71;ppm;INAA;;;;0,44;ppm;INAA;;;;;;;;;;;;;1,6;ppm;INAA;0,25;ppm;INAA;;;;0,01;ppm;INAA;0;ppm;INAA;;;;;;;;;;;;;;;;0,022;ppm;AAS;;;;;;;;;;5,8;ppm;ES;98;ppm;Unknown;;;;;;;;;;;;;64;ppm;Unknown;880;ppm;Unknown;0,51;ppm;INAA;67;ppm;Unknown;15;ppm;ICP;;;;1,6;ppm;INAA;;;;;;;;;;;;;;;;;;;;;;4,3;ppm;ICP;201;ppm;Unknown;;;;;;;;;;7,2;ppm;Unknown;12;ppm;Unknown;12;ppm;Unknown;;;;;;;;;;0,05;ppm;INAA;;;;39;ppm;INAA;;;;135;ppm;Unknown;0,35;ppm;INAA;1,4;ppm;INAA;;;;;;;;;;;;;;;;15;ppm;Unknown;65;ppm;Unknown;70;ppm;Unknown;;;;;;;;;;;;;;;;;;;;;;;;;;;;;;;;;;0,12;wt%;TITR;0,25;wt%;TITR;0,12;wt%;TITR;0,25;wt%;TITR;;;
GROSCAMP-W-243867;;GROSSMAN-CAMP;GROSSMAN, 1991;40,2167;-76,6667;0,001;;;CONTINENTAL_RIFT;;;;"AAS; COL; ES; ICP; INAA; TITR; Unknown";WHOLE ROCK;IGNEOUS:VOLCANIC:MAFIC;DIABASE;;52,1;wt%;COL;0,81;wt%;COL;14,7;wt%;COL;;;;1,61;wt%;Unknown;;;;7,6;wt%;TITR;;;;;;;0,17;wt%;AAS;8,18;wt%;AAS;12,1;wt%;Unknown;;;;1,99;wt%;Unknown;0,42;wt%;AAS;0,1;wt%;COL;;;;;;;;;;0,08;wt%;TITR;0,17;wt%;TITR;;;;;;;;;;75;ppm;Unknown;44;ppm;Unknown;79;ppm;Unknown;;;;54;ppm;Unknown;;;;0,029;ppm;AAS;0,05;ppm;INAA;;;;;;;;;;;;;;;;;;;;;;;;;;;;;;;;;;;;;;;;;;;;;;;;;;;;;;;;;;;;;;;;;;;;;;;;;;;;;;;;;;;;;;;;;;;;;;;;;;;;;;;;;;;;;;;;;;;;;;;;;7,7;ppm;INAA;16,8;ppm;INAA;;;;8,3;ppm;INAA;2,49;ppm;INAA;0,85;ppm;INAA;;;;0,47;ppm;INAA;;;;;;;;;;;;;1,7;ppm;INAA;0,24;ppm;INAA;;;;0,01;ppm;INAA;0,01;ppm;INAA;;;;;;;;;;;;;;;;0,029;ppm;AAS;;;;;;;;;;8;ppm;ES;122;ppm;Unknown;;;;;;;;;;;;;44;ppm;Unknown;215;ppm;Unknown;0,59;ppm;INAA;79;ppm;Unknown;19;ppm;ICP;;;;1,7;ppm;INAA;;;;;;;;;;;;;;;;;;;;;;4,8;ppm;ICP;75;ppm;Unknown;;;;;;;;;;5,3;ppm;Unknown;9,6;ppm;Unknown;24;ppm;Unknown;;;;;;;;;;0,05;ppm;INAA;;;;35;ppm;INAA;;;;199;ppm;Unknown;0,36;ppm;INAA;1,5;ppm;INAA;;;;;;;;;;;;;;;;15;ppm;Unknown;54;ppm;Unknown;75;ppm;Unknown;;;;;;;;;;;;;;;;;;;;;;;;;;;;;;;;;;0,08;wt%;TITR;0,17;wt%;TITR;0,08;wt%;TITR;0,17;wt%;TITR;;;
GROSCAMP-W-243868;;GROSSMAN-CAMP;GROSSMAN, 1991;40,2111;-76,875;0,001;;;CONTINENTAL_RIFT;;;;"AAS; COL; ES; ICP; INAA; TITR; Unknown";WHOLE ROCK;IGNEOUS:VOLCANIC:MAFIC;DIABASE;;50,8;wt%;COL;1,36;wt%;COL;14,7;wt%;COL;;;;3,33;wt%;Unknown;;;;8,8;wt%;TITR;;;;;;;0,15;wt%;AAS;6,33;wt%;AAS;5,44;wt%;Unknown;;;;4,72;wt%;Unknown;1,31;wt%;AAS;0,16;wt%;COL;;;;;;;;;;0,34;wt%;TITR;2,9;wt%;TITR;;;;;;;;;;66;ppm;Unknown;49;ppm;Unknown;127;ppm;Unknown;;;;99;ppm;Unknown;2,8;ppm;INAA;0,013;ppm;AAS;0,03;ppm;INAA;;;;;;;;;;;;;;;;;;;;;;;;;;;;;;;;;;;;;;;;;;;;;;;;;;;;;;;;;;;;;;;;;;;;;;;;;;;;;;;;;;;;;;;;;;;;;;;;;;;;;;;;;;;;;;;;;;;;;;;;;11,6;ppm;INAA;26,5;ppm;INAA;;;;14;ppm;INAA;4,1;ppm;INAA;1,1;ppm;INAA;;;;0,72;ppm;INAA;;;;;;;;;;;;;2,9;ppm;INAA;0,39;ppm;INAA;0,02;ppm;TITR;0,03;ppm;INAA;0,04;ppm;INAA;;;;;;;;;;;;;;;;0,013;ppm;AAS;;;;2,8;ppm;INAA;;;;12;ppm;ES;560;ppm;Unknown;;;;;;;;;;;;;49;ppm;Unknown;79;ppm;Unknown;0,64;ppm;INAA;127;ppm;Unknown;18;ppm;ICP;;;;3,2;ppm;INAA;;;;;;;;;;;;;;;;;;;;;;8,9;ppm;ICP;66;ppm;Unknown;;;;;;;;;;12;ppm;Unknown;5,6;ppm;Unknown;37;ppm;Unknown;;;;;;;;;;0,03;ppm;INAA;0,3;ppm;INAA;38;ppm;INAA;;;;340;ppm;Unknown;0,69;ppm;INAA;2,8;ppm;INAA;;;;;;;0,65;ppm;INAA;;;;;;;24;ppm;Unknown;99;ppm;Unknown;126;ppm;Unknown;;;;;;;;;;;;;;;;;;;;;;;;;2,8;ppm;INAA;2,8;ppm;INAA;;;;0,34;wt%;TITR;2,9;wt%;TITR;0,34;wt%;TITR;2,9;wt%;TITR;;;
GROSCAMP-W-243869;;GROSSMAN-CAMP;GROSSMAN, 1991;40,1875;-76,7833;0,001;;;CONTINENTAL_RIFT;;;;"AAS; COL; ES; ICP; INAA; TITR; Unknown";WHOLE ROCK;IGNEOUS:VOLCANIC:MAFIC;DIABASE;;52,1;wt%;COL;1,12;wt%;COL;13,7;wt%;COL;;;;2,2;wt%;Unknown;;;;8,7;wt%;TITR;;;;;;;0,18;wt%;AAS;8,07;wt%;AAS;11;wt%;Unknown;;;;1,98;wt%;Unknown;0,57;wt%;AAS;0,14;wt%;COL;;;;;;;;;;0,17;wt%;TITR;0,63;wt%;TITR;;;;;;;;;;94;ppm;Unknown;49;ppm;Unknown;95;ppm;Unknown;;;;77;ppm;Unknown;;;;0,044;ppm;AAS;0,04;ppm;INAA;;;;;;;;;;;;;;;;;;;;;;;;;;;;;;;;;;;;;;;;;;;;;;;;;;;;;;;;;;;;;;;;;;;;;;;;;;;;;;;;;;;;;;;;;;;;;;;;;;;;;;;;;;;;;;;;;;;;;;;;;10,8;ppm;INAA;22;ppm;INAA;;;;12;ppm;INAA;3,4;ppm;INAA;1,04;ppm;INAA;;;;0,6;ppm;INAA;;;;;;;;;;;;;2,5;ppm;INAA;0,32;ppm;INAA;0,03;ppm;TITR;;;;0,02;ppm;INAA;;;;;;;;;;;;;;;;0,044;ppm;AAS;;;;;;;;;;8,3;ppm;ES;149;ppm;Unknown;;;;;;;;;;;;;49;ppm;Unknown;350;ppm;Unknown;0,91;ppm;INAA;95;ppm;Unknown;20;ppm;ICP;;;;2,3;ppm;INAA;;;;;;;;;;;;;;;;;;;;;;6,2;ppm;ICP;94;ppm;Unknown;;;;;;;;;;5,9;ppm;Unknown;7,8;ppm;Unknown;22;ppm;Unknown;;;;;;;;;;0,04;ppm;INAA;0,22;ppm;INAA;38;ppm;INAA;;;;172;ppm;Unknown;0,54;ppm;INAA;2,1;ppm;INAA;;;;;;;0,49;ppm;INAA;;;;;;;20;ppm;Unknown;77;ppm;Unknown;101;ppm;Unknown;;;;;;;;;;;;;;;;;;;;;;;;;;;;;;;;;;0,17;wt%;TITR;0,63;wt%;TITR;0,17;wt%;TITR;0,63;wt%;TITR;;;
GROSCAMP-W-243870;;GROSSMAN-CAMP;GROSSMAN, 1991;40,1875;-76,7833;0,001;;;CONTINENTAL_RIFT;;;;"AAS; COL; ES; ICP; INAA; TITR; Unknown";WHOLE ROCK;IGNEOUS:VOLCANIC:MAFIC;DIABASE;;52,5;wt%;COL;1,03;wt%;COL;14,8;wt%;COL;;;;3,4;wt%;Unknown;;;;7;wt%;TITR;;;;;;;0,18;wt%;AAS;7,11;wt%;AAS;11,4;wt%;Unknown;;;;2,12;wt%;Unknown;0,6;wt%;AAS;0,14;wt%;COL;;;;;;;;;;0,2;wt%;TITR;0,25;wt%;TITR;;;;;;;;;;72;ppm;Unknown;45;ppm;Unknown;111;ppm;Unknown;;;;72;ppm;Unknown;;;;0,048;ppm;AAS;0,04;ppm;INAA;;;;;;;;;;;;;;;;;;;;;;;;;;;;;;;;;;;;;;;;;;;;;;;;;;;;;;;;;;;;;;;;;;;;;;;;;;;;;;;;;;;;;;;;;;;;;;;;;;;;;;;;;;;;;;;;;;;;;;;;;10,9;ppm;INAA;22;ppm;INAA;;;;11;ppm;INAA;3,3;ppm;INAA;1,1;ppm;INAA;;;;0,6;ppm;INAA;;;;;;;;;;;;;2,1;ppm;INAA;0,3;ppm;INAA;0,01;ppm;TITR;0,03;ppm;INAA;0,04;ppm;INAA;;;;;;;;;;;;;;;;0,048;ppm;AAS;;;;;;;;;;9;ppm;ES;160;ppm;Unknown;;;;;;;;;;;;;45;ppm;Unknown;273;ppm;Unknown;1,1;ppm;INAA;111;ppm;Unknown;20;ppm;ICP;;;;2,3;ppm;INAA;;;;;;;;;;;;;;;;;;;;;;6,5;ppm;ICP;72;ppm;Unknown;;;;;;;;;;6,3;ppm;Unknown;13;ppm;Unknown;27;ppm;Unknown;;;;;;;;;;0,04;ppm;INAA;0,35;ppm;INAA;36;ppm;INAA;;;;200;ppm;Unknown;0,51;ppm;INAA;2,2;ppm;INAA;;;;;;;0,5;ppm;INAA;;;;;;;19;ppm;Unknown;72;ppm;Unknown;100;ppm;Unknown;;;;;;;;;;;;;;;;;;;;;;;;;;;;;;;;;;0,2;wt%;TITR;0,25;wt%;TITR;0,2;wt%;TITR;0,25;wt%;TITR;;;
GROSCAMP-W-243871;;GROSSMAN-CAMP;GROSSMAN, 1991;40,1875;-76,7833;0,001;;;CONTINENTAL_RIFT;;;;"AAS; COL; ES; ICP; INAA; TITR; Unknown";WHOLE ROCK;IGNEOUS:VOLCANIC:MAFIC;DIABASE;;52,4;wt%;COL;1,1;wt%;COL;13,9;wt%;COL;;;;2,85;wt%;Unknown;;;;8,5;wt%;TITR;;;;;;;0,18;wt%;AAS;7,59;wt%;AAS;11,2;wt%;Unknown;;;;2,06;wt%;Unknown;0,58;wt%;AAS;0,15;wt%;COL;;;;;;;;;;0,25;wt%;TITR;0,39;wt%;TITR;;;;;;;;;;67;ppm;Unknown;49;ppm;Unknown;108;ppm;Unknown;;;;72;ppm;Unknown;1,6;ppm;INAA;0,042;ppm;AAS;0,04;ppm;INAA;;;;;;;;;;;;;;;;;;;;;;;;;;;;;;;;;;;;;;;;;;;;;;;;;;;;;;;;;;;;;;;;;;;;;;;;;;;;;;;;;;;;;;;;;;;;;;;;;;;;;;;;;;;;;;;;;;;;;;;;;10,8;ppm;INAA;22;ppm;INAA;;;;12;ppm;INAA;3,4;ppm;INAA;1;ppm;INAA;;;;0,58;ppm;INAA;;;;;;;;;;;;;2,2;ppm;INAA;0,33;ppm;INAA;;;;0,02;ppm;INAA;0,02;ppm;INAA;;;;;;;;;;;;;;;;0,042;ppm;AAS;;;;1,6;ppm;INAA;7,1;ppm;INAA;7,7;ppm;ES;162;ppm;Unknown;;;;;;;;;;;;;49;ppm;Unknown;160;ppm;Unknown;0,9;ppm;INAA;108;ppm;Unknown;20;ppm;ICP;;;;2,4;ppm;INAA;;;;;;;;;;;;;;;;;;;;;;7,3;ppm;ICP;67;ppm;Unknown;;;;;;;;;;7,3;ppm;Unknown;5,4;ppm;Unknown;20;ppm;Unknown;;;;;;;;;;0,04;ppm;INAA;;;;39;ppm;INAA;;;;184;ppm;Unknown;0,51;ppm;INAA;2,2;ppm;INAA;;;;;;;0,5;ppm;INAA;;;;;;;20;ppm;Unknown;72;ppm;Unknown;99;ppm;Unknown;;;;;;;;;;;;;;;;;;;;;;;;;1,6;ppm;INAA;1,6;ppm;INAA;;;;0,25;wt%;TITR;0,39;wt%;TITR;0,25;wt%;TITR;0,39;wt%;TITR;;;
GROSCAMP-W-243872;;GROSSMAN-CAMP;GROSSMAN, 1991;39,85;-77,15;0,001;;;CONTINENTAL_RIFT;;;;"AAS; COL; ES; ICP; INAA; TITR; Unknown";WHOLE ROCK;IGNEOUS:VOLCANIC:MAFIC;DIABASE;;51,6;wt%;COL;0,53;wt%;COL;14,6;wt%;COL;;;;1,58;wt%;Unknown;;;;6,8;wt%;TITR;;;;;;;0,16;wt%;AAS;10,1;wt%;AAS;12,8;wt%;Unknown;;;;1,56;wt%;Unknown;0,18;wt%;AAS;0,05;wt%;COL;;;;;;;;;;0,25;wt%;TITR;0,11;wt%;TITR;;;;;;;;;;118;ppm;Unknown;47;ppm;Unknown;47;ppm;Unknown;;;;55;ppm;Unknown;0,85;ppm;INAA;0,015;ppm;AAS;0,03;ppm;INAA;;;;;;;;;;;;;;;;;;;;;;;;;;;;;;;;;;;;;;;;;;;;;;;;;;;;;;;;;;;;;;;;;;;;;;;;;;;;;;;;;;;;;;;;;;;;;;;;;;;;;;;;;;;;;;;;;;;;;;;;;3,9;ppm;INAA;8,6;ppm;INAA;;;;;;;1,54;ppm;INAA;0,59;ppm;INAA;;;;0,31;ppm;INAA;;;;;;;;;;;;;1,1;ppm;INAA;0,17;ppm;INAA;;;;0,01;ppm;INAA;0;ppm;INAA;;;;;;;;;;;;;;;;0,015;ppm;AAS;;;;0,85;ppm;INAA;;;;6,5;ppm;ES;62;ppm;Unknown;;;;;;;;;;;;;47;ppm;Unknown;510;ppm;Unknown;;;;47;ppm;Unknown;17;ppm;ICP;;;;1;ppm;INAA;;;;;;;;;;;;;;;;;;;;;;2,6;ppm;ICP;118;ppm;Unknown;;;;;;;;;;4,5;ppm;Unknown;12;ppm;Unknown;4;ppm;Unknown;;;;;;;;;;0,03;ppm;INAA;;;;38;ppm;INAA;;;;172;ppm;Unknown;0,21;ppm;INAA;0,66;ppm;INAA;;;;;;;;;;;;;;;;11;ppm;Unknown;55;ppm;Unknown;51;ppm;Unknown;;;;;;;;;;;;;;;;;;;;;;;;;0,85;ppm;INAA;0,85;ppm;INAA;;;;0,25;wt%;TITR;0,11;wt%;TITR;0,25;wt%;TITR;0,11;wt%;TITR;;;
GROSCAMP-W-243873;;GROSSMAN-CAMP;GROSSMAN, 1991;40,075;-76,9694;0,001;;;CONTINENTAL_RIFT;;;;"AAS; COL; ES; ICP; INAA; TITR; Unknown";WHOLE ROCK;IGNEOUS:VOLCANIC:MAFIC;DIABASE;;52,4;wt%;COL;1,16;wt%;COL;14,2;wt%;COL;;;;1,83;wt%;Unknown;;;;8,8;wt%;TITR;;;;;;;0,18;wt%;AAS;7,39;wt%;AAS;11,1;wt%;Unknown;;;;2,13;wt%;Unknown;0,62;wt%;AAS;0,15;wt%;COL;;;;;;;;;;0,1;wt%;TITR;0,25;wt%;TITR;;;;;;;;;;75;ppm;Unknown;46;ppm;Unknown;104;ppm;Unknown;;;;72;ppm;Unknown;;;;0,04;ppm;AAS;0,05;ppm;INAA;;;;;;;;;;;;;;;;;;;;;;;;;;;;;;;;;;;;;;;;;;;;;;;;;;;;;;;;;;;;;;;;;;;;;;;;;;;;;;;;;;;;;;;;;;;;;;;;;;;;;;;;;;;;;;;;;;;;;;;;;11;ppm;INAA;23;ppm;INAA;;;;13;ppm;INAA;3,5;ppm;INAA;1;ppm;INAA;;;;0,63;ppm;INAA;;;;;;;;;;;;;2,2;ppm;INAA;0,32;ppm;INAA;0,02;ppm;TITR;0,03;ppm;INAA;0,13;ppm;INAA;;;;;;;;;;;;;;;;0,04;ppm;AAS;;;;;;;;;;7,1;ppm;ES;156;ppm;Unknown;;;;;;;;;;;;;46;ppm;Unknown;265;ppm;Unknown;0,98;ppm;INAA;104;ppm;Unknown;21;ppm;ICP;;;;2,4;ppm;INAA;;;;;;;;;;;;;;;;;;;;;;7,1;ppm;ICP;75;ppm;Unknown;;;;;;;;;;7,1;ppm;Unknown;6,5;ppm;Unknown;19;ppm;Unknown;;;;;;;;;;0,05;ppm;INAA;0,26;ppm;INAA;36;ppm;INAA;;;;183;ppm;Unknown;0,51;ppm;INAA;2,2;ppm;INAA;;;;;;;0,57;ppm;INAA;;;;;;;21;ppm;Unknown;72;ppm;Unknown;104;ppm;Unknown;;;;;;;;;;;;;;;;;;;;;;;;;;;;;;;;;;0,1;wt%;TITR;0,25;wt%;TITR;0,1;wt%;TITR;0,25;wt%;TITR;;;