SAMPLE ID;IGSN;EXPEDITION ID;REFERENCES;LATITUDE;LONGITUDE;LOC PREC;MIN ELEVATION;MAX ELEVATION;TECTONIC SETTING;MIN AGE;AGE;MAX AGE;METHOD;ANALYZED MATERIAL;ROCK TYPE;ROCK NAME;MINERAL;SIO2;SIO2 Units;SIO2 Method;TIO2;TIO2 Units;TIO2 Method;AL2O3;AL2O3 Units;AL2O3 Method;CR2O3;CR2O3 Units;CR2O3 Method;FE2O3;FE2O3 Units;FE2O3 Method;FE2O3T;FE2O3T Units;FE2O3T Method;FEO;FEO Units;FEO Method;FEOT;FEOT Units;FEOT Method;NIO;NIO Units;NIO Method;MNO;MNO Units;MNO Method;MGO;MGO Units;MGO Method;CAO;CAO Units;CAO Method;SRO;SRO Units;SRO Method;NA2O;NA2O Units;NA2O Method;K2O;K2O Units;K2O Method;P2O5;P2O5 Units;P2O5 Method;BAO;BAO Units;BAO Method;LOI;LOI Units;LOI Method;H2O;H2O Units;H2O Method;H2O_M;H2O_M Units;H2O_M Method;H2O_P;H2O_P Units;H2O_P Method;SO3;SO3 Units;SO3 Method;COO;COO Units;COO Method;MN;MN Units;MN Method;NI;NI Units;NI Method;CO;CO Units;CO Method;CU;CU Units;CU Method;CD;CD Units;CD Method;ZN;ZN Units;ZN Method;AS;AS Units;AS Method;AG;AG Units;AG Method;S;S Units;S Method;ZRO2;ZRO2 Units;ZRO2 Method;AL;AL Units;AL Method;CA;CA Units;CA Method;SR87_SR86;SR87_SR86 Units;SR87_SR86 Method;SR87_SR86_INI;SR87_SR86_INI Units;SR87_SR86_INI Method;RB87_SR86;RB87_SR86 Units;RB87_SR86 Method;ND143_ND144;ND143_ND144 Units;ND143_ND144 Method;ND143_ND144_INI;ND143_ND144_INI Units;ND143_ND144_INI Method;SM147_ND144;SM147_ND144 Units;SM147_ND144 Method;E_ND;E_ND Units;E_ND Method;E_ND_INI;E_ND_INI Units;E_ND_INI Method;PB204_PB206;PB204_PB206 Units;PB204_PB206 Method;PB206_PB204;PB206_PB204 Units;PB206_PB204 Method;PB206_PB204_INI;PB206_PB204_INI Units;PB206_PB204_INI Method;PB207_PB204;PB207_PB204 Units;PB207_PB204 Method;PB207_PB204_INI;PB207_PB204_INI Units;PB207_PB204_INI Method;PB207_PB206;PB207_PB206 Units;PB207_PB206 Method;PB208_PB204;PB208_PB204 Units;PB208_PB204 Method;PB208_PB204_INI;PB208_PB204_INI Units;PB208_PB204_INI Method;PB208_PB206;PB208_PB206 Units;PB208_PB206 Method;HF176_HF177;HF176_HF177 Units;HF176_HF177 Method;RE187_OS188;RE187_OS188 Units;RE187_OS188 Method;OS187_OS188;OS187_OS188 Units;OS187_OS188 Method;OS187_OS188_INI;OS187_OS188_INI Units;OS187_OS188_INI Method;G_OS;G_OS Units;G_OS Method;G_OS_INI;G_OS_INI Units;G_OS_INI Method;ND143_ND144_INI;ND143_ND144_INI Units;ND143_ND144_INI Method;PB206_PB204_INI;PB206_PB204_INI Units;PB206_PB204_INI Method;PB207_PB204_INI;PB207_PB204_INI Units;PB207_PB204_INI Method;PB208_PB204_INI;PB208_PB204_INI Units;PB208_PB204_INI Method;SR87_SR86_INI;SR87_SR86_INI Units;SR87_SR86_INI Method;HE;HE Units;HE Method;HE3;HE3 Units;HE3 Method;HE3_HE4_R_RA;HE3_HE4_R_RA Units;HE3_HE4_R_RA Method;AR36;AR36 Units;AR36 Method;AR40;AR40 Units;AR40 Method;AR40_AR36;AR40_AR36 Units;AR40_AR36 Method;NE20;NE20 Units;NE20 Method;NE20_NE22;NE20_NE22 Units;NE20_NE22 Method;NE21_NE22;NE21_NE22 Units;NE21_NE22 Method;LA;LA Units;LA Method;CE;CE Units;CE Method;PR;PR Units;PR Method;ND;ND Units;ND Method;SM;SM Units;SM Method;EU;EU Units;EU Method;GD;GD Units;GD Method;TB;TB Units;TB Method;DY;DY Units;DY Method;HO;HO Units;HO Method;ER;ER Units;ER Method;TM;TM Units;TM Method;YB;YB Units;YB Method;LU;LU Units;LU Method;CO2;CO2 Units;CO2 Method;F;F Units;F Method;CL;CL Units;CL Method;U238_PB204;U238_PB204 Units;U238_PB204 Method;TH230_TH232;TH230_TH232 Units;TH230_TH232 Method;RA226_ACTIVITY;RA226_ACTIVITY Units;RA226_ACTIVITY Method;PB210_RA226;PB210_RA226 Units;PB210_RA226 Method;PB210_ACTIVITY;PB210_ACTIVITY Units;PB210_ACTIVITY Method;AG;AG Units;AG Method;AL;AL Units;AL Method;AS;AS Units;AS Method;AU;AU Units;AU Method;B;B Units;B Method;BA;BA Units;BA Method;BE;BE Units;BE Method;BI;BI Units;BI Method;CA;CA Units;CA Method;CD;CD Units;CD Method;CO;CO Units;CO Method;CR;CR Units;CR Method;CS;CS Units;CS Method;CU;CU Units;CU Method;GA;GA Units;GA Method;GER;GER Units;GER Method;HF;HF Units;HF Method;INDIUM;INDIUM Units;INDIUM Method;IR;IR Units;IR Method;K;K Units;K Method;LI;LI Units;LI Method;MN;MN Units;MN Method;MO;MO Units;MO Method;NA;NA Units;NA Method;NB;NB Units;NB Method;NI;NI Units;NI Method;OS;OS Units;OS Method;P;P Units;P Method;PB;PB Units;PB Method;PD;PD Units;PD Method;PT;PT Units;PT Method;RB;RB Units;RB Method;RE;RE Units;RE Method;RH;RH Units;RH Method;RU;RU Units;RU Method;S;S Units;S Method;SB;SB Units;SB Method;SC;SC Units;SC Method;SN;SN Units;SN Method;SR;SR Units;SR Method;TA;TA Units;TA Method;TH;TH Units;TH Method;TI;TI Units;TI Method;TL;TL Units;TL Method;U;U Units;U Method;V;V Units;V Method;W;W Units;W Method;Y;Y Units;Y Method;ZN;ZN Units;ZN Method;ZR;ZR Units;ZR Method;DELTA_O18;DELTA_O18 Units;DELTA_O18 Method;DELTA_C13;DELTA_C13 Units;DELTA_C13 Method;DELTA_MO98;DELTA_MO98 Units;DELTA_MO98 Method;DELTA_ZN66;DELTA_ZN66 Units;DELTA_ZN66 Method;DELTA_ZN68;DELTA_ZN68 Units;DELTA_ZN68 Method;OS188;OS188 Units;OS188 Method;FE3P_FET;FE3P_FET Units;FE3P_FET Method;TI;TI Units;TI Method;AS;AS Units;AS Method;AS;AS Units;AS Method;GER;GER Units;GER Method;H2O_M;H2O_M Units;H2O_M Method;H2O_P;H2O_P Units;H2O_P Method;H2O_M;H2O_M Units;H2O_M Method;H2O_P;H2O_P Units;H2O_P Method;INDIUM;INDIUM Units;INDIUM Method
GROSCAMP-W-241953;;GROSSMAN-CAMP;GROSSMAN, 1991;40,2022;-76,8667;0,001;;;CONTINENTAL_RIFT;;;;"AAS; COL; ES; ICP; INAA; TITR; Unknown";WHOLE ROCK;IGNEOUS:VOLCANIC:MAFIC;DIABASE;;52,7;wt%;COL;1,45;wt%;COL;15,8;wt%;COL;;;;3,53;wt%;Unknown;;;;7,5;wt%;TITR;;;;;;;0,13;wt%;AAS;4,03;wt%;AAS;10,2;wt%;Unknown;;;;3,05;wt%;Unknown;0,75;wt%;AAS;0,18;wt%;COL;;;;;;;;;;0,37;wt%;TITR;0,63;wt%;TITR;;;;;;;;;;40;ppm;Unknown;39;ppm;Unknown;92;ppm;Unknown;;;;65;ppm;Unknown;2,1;ppm;INAA;;;;0,03;ppm;INAA;;;;;;;;;;;;;;;;;;;;;;;;;;;;;;;;;;;;;;;;;;;;;;;;;;;;;;;;;;;;;;;;;;;;;;;;;;;;;;;;;;;;;;;;;;;;;;;;;;;;;;;;;;;;;;;;;;;;;;;;;14,7;ppm;INAA;31;ppm;INAA;;;;16;ppm;INAA;4,6;ppm;INAA;1,45;ppm;INAA;;;;0,88;ppm;INAA;;;;;;;;;;;;;2,8;ppm;INAA;0,41;ppm;INAA;0,42;ppm;TITR;0,02;ppm;INAA;0,14;ppm;INAA;;;;;;;;;;;;;;;;;;;;;;2,1;ppm;INAA;6,3;ppm;INAA;19;ppm;ES;213;ppm;Unknown;;;;;;;;;;;;;39;ppm;Unknown;13;ppm;Unknown;0,78;ppm;INAA;92;ppm;Unknown;;;;;;;3,5;ppm;INAA;;;;;;;;;;;;;;;;;;;;;;10;ppm;ICP;40;ppm;Unknown;;;;;;;;;;9,1;ppm;Unknown;3,9;ppm;Unknown;25;ppm;Unknown;;;;;;;;;;0,03;ppm;INAA;;;;33;ppm;INAA;;;;225;ppm;Unknown;0,73;ppm;INAA;3,3;ppm;INAA;;;;;;;0,75;ppm;INAA;;;;;;;30;ppm;Unknown;65;ppm;Unknown;129;ppm;Unknown;;;;;;;;;;;;;;;;;;;;;;;;;2,1;ppm;INAA;2,1;ppm;INAA;;;;0,37;wt%;TITR;0,63;wt%;TITR;0,37;wt%;TITR;0,63;wt%;TITR;;;
GROSCAMP-W-241954;;GROSSMAN-CAMP;GROSSMAN, 1991;40,2022;-76,8667;0,001;;;CONTINENTAL_RIFT;;;;"AAS; COL; ICP; INAA; TITR; Unknown";WHOLE ROCK;IGNEOUS:VOLCANIC:MAFIC;DIABASE;;52,7;wt%;COL;1,4;wt%;COL;15,7;wt%;COL;;;;2,91;wt%;Unknown;;;;8,9;wt%;TITR;;;;;;;0,17;wt%;AAS;4,51;wt%;AAS;9,99;wt%;Unknown;;;;2,79;wt%;Unknown;1,01;wt%;AAS;0,17;wt%;COL;;;;;;;;;;0,21;wt%;TITR;0,69;wt%;TITR;;;;;;;;;;36;ppm;Unknown;43;ppm;Unknown;111;ppm;Unknown;;;;51;ppm;Unknown;1,8;ppm;INAA;;;;0,03;ppm;INAA;;;;;;;;;;;;;;;;;;;;;;;;;;;;;;;;;;;;;;;;;;;;;;;;;;;;;;;;;;;;;;;;;;;;;;;;;;;;;;;;;;;;;;;;;;;;;;;;;;;;;;;;;;;;;;;;;;;;;;;;;14,7;ppm;INAA;29;ppm;INAA;;;;15;ppm;INAA;4,3;ppm;INAA;1,4;ppm;INAA;;;;0,75;ppm;INAA;;;;;;;;;;;;;2,7;ppm;INAA;0,36;ppm;INAA;0,03;ppm;TITR;0,03;ppm;INAA;0,19;ppm;INAA;;;;;;;;;;;;;;;;;;;;;;1,8;ppm;INAA;5,9;ppm;INAA;;;;234;ppm;Unknown;;;;;;;;;;;;;43;ppm;Unknown;21;ppm;Unknown;1,1;ppm;INAA;111;ppm;Unknown;;;;;;;3,3;ppm;INAA;;;;;;;;;;;;;;;;;;;;;;10;ppm;ICP;36;ppm;Unknown;;;;;;;;;;9,1;ppm;Unknown;4,3;ppm;Unknown;43;ppm;Unknown;;;;;;;;;;0,03;ppm;INAA;0,21;ppm;INAA;34;ppm;INAA;;;;215;ppm;Unknown;0,69;ppm;INAA;2,9;ppm;INAA;;;;;;;0,69;ppm;INAA;;;;;;;33;ppm;Unknown;51;ppm;Unknown;120;ppm;Unknown;;;;;;;;;;;;;;;;;;;;;;;;;1,8;ppm;INAA;1,8;ppm;INAA;;;;0,21;wt%;TITR;0,69;wt%;TITR;0,21;wt%;TITR;0,69;wt%;TITR;;;
GROSCAMP-W-241955;;GROSSMAN-CAMP;GROSSMAN, 1991;40,2022;-76,8667;0,001;;;CONTINENTAL_RIFT;;;;"AAS; COL; ES; ICP; INAA; TITR; Unknown";WHOLE ROCK;IGNEOUS:VOLCANIC:MAFIC;DIABASE;;52,9;wt%;COL;1,41;wt%;COL;15;wt%;COL;;;;3,12;wt%;Unknown;;;;8,9;wt%;TITR;;;;;;;0,16;wt%;AAS;4,89;wt%;AAS;9,85;wt%;Unknown;;;;2,71;wt%;Unknown;0,95;wt%;AAS;0,18;wt%;COL;;;;;;;;;;0,18;wt%;TITR;0,73;wt%;TITR;;;;;;;;;;41;ppm;Unknown;45;ppm;Unknown;107;ppm;Unknown;;;;63;ppm;Unknown;2;ppm;INAA;;;;0,03;ppm;INAA;;;;;;;;;;;;;;;;;;;;;;;;;;;;;;;;;;;;;;;;;;;;;;;;;;;;;;;;;;;;;;;;;;;;;;;;;;;;;;;;;;;;;;;;;;;;;;;;;;;;;;;;;;;;;;;;;;;;;;;;;15,6;ppm;INAA;33;ppm;INAA;;;;17;ppm;INAA;4,5;ppm;INAA;1,36;ppm;INAA;;;;0,74;ppm;INAA;;;;;;;;;;;;;2,8;ppm;INAA;0,39;ppm;INAA;0,02;ppm;TITR;0,02;ppm;INAA;0,09;ppm;INAA;;;;;;;;;;;;;;;;;;;;;;2;ppm;INAA;5;ppm;INAA;30;ppm;ES;218;ppm;Unknown;;;;;;;;;;;;;45;ppm;Unknown;28;ppm;Unknown;0,87;ppm;INAA;107;ppm;Unknown;;;;;;;3,3;ppm;INAA;;;;;;;;;;;;;;;;;;;;;;11;ppm;ICP;41;ppm;Unknown;;;;;;;;;;6,9;ppm;Unknown;3,5;ppm;Unknown;21;ppm;Unknown;;;;;;;;;;0,03;ppm;INAA;0,25;ppm;INAA;35;ppm;INAA;;;;190;ppm;Unknown;0,75;ppm;INAA;3,1;ppm;INAA;;;;;;;0,7;ppm;INAA;;;;;;;27;ppm;Unknown;63;ppm;Unknown;126;ppm;Unknown;;;;;;;;;;;;;;;;;;;;;;;;;2;ppm;INAA;2;ppm;INAA;;;;0,18;wt%;TITR;0,73;wt%;TITR;0,18;wt%;TITR;0,73;wt%;TITR;;;
GROSCAMP-W-241956;;GROSSMAN-CAMP;GROSSMAN, 1991;40,2022;-76,8667;0,001;;;CONTINENTAL_RIFT;;;;"AAS; COL; ICP; INAA; TITR; Unknown";WHOLE ROCK;IGNEOUS:VOLCANIC:MAFIC;DIABASE;;53,1;wt%;COL;1,43;wt%;COL;14,4;wt%;COL;;;;2,96;wt%;Unknown;;;;9,2;wt%;TITR;;;;;;;0,18;wt%;AAS;5,33;wt%;AAS;10;wt%;Unknown;;;;2,51;wt%;Unknown;0,97;wt%;AAS;0,18;wt%;COL;;;;;;;;;;0,2;wt%;TITR;0,77;wt%;TITR;;;;;;;;;;59;ppm;Unknown;45;ppm;Unknown;134;ppm;Unknown;;;;76;ppm;Unknown;1,8;ppm;INAA;;;;0,04;ppm;INAA;;;;;;;;;;;;;;;;;;;;;;;;;;;;;;;;;;;;;;;;;;;;;;;;;;;;;;;;;;;;;;;;;;;;;;;;;;;;;;;;;;;;;;;;;;;;;;;;;;;;;;;;;;;;;;;;;;;;;;;;;15,4;ppm;INAA;31;ppm;INAA;;;;16;ppm;INAA;4,5;ppm;INAA;1,29;ppm;INAA;;;;0,81;ppm;INAA;;;;;;;;;;;;;2,77;ppm;INAA;0,38;ppm;INAA;0,03;ppm;TITR;0,02;ppm;INAA;0,13;ppm;INAA;;;;;;;;;;;;;;;;;;;;;;1,8;ppm;INAA;8,5;ppm;INAA;;;;232;ppm;Unknown;;;;;;;;;;;;;45;ppm;Unknown;39;ppm;Unknown;0,99;ppm;INAA;134;ppm;Unknown;;;;;;;3,2;ppm;INAA;;;;;;;;;;;;;;;;;;;;;;11;ppm;ICP;59;ppm;Unknown;;;;;;;;;;9,1;ppm;Unknown;4,7;ppm;Unknown;30;ppm;Unknown;;;;;;;;;;0,04;ppm;INAA;0,26;ppm;INAA;36;ppm;INAA;;;;196;ppm;Unknown;0,76;ppm;INAA;3,2;ppm;INAA;;;;;;;0,73;ppm;INAA;;;;;;;30;ppm;Unknown;76;ppm;Unknown;127;ppm;Unknown;;;;;;;;;;;;;;;;;;;;;;;;;1,8;ppm;INAA;1,8;ppm;INAA;;;;0,2;wt%;TITR;0,77;wt%;TITR;0,2;wt%;TITR;0,77;wt%;TITR;;;
GROSCAMP-W-241957;;GROSSMAN-CAMP;GROSSMAN, 1991;40,2022;-76,8667;0,001;;;CONTINENTAL_RIFT;;;;"AAS; COL; ICP; INAA; TITR; Unknown";WHOLE ROCK;IGNEOUS:VOLCANIC:MAFIC;DIABASE;;52,8;wt%;COL;1,41;wt%;COL;14,8;wt%;COL;;;;2,34;wt%;Unknown;;;;8,2;wt%;TITR;;;;;;;0,16;wt%;AAS;5,53;wt%;AAS;10,2;wt%;Unknown;;;;2,94;wt%;Unknown;0,71;wt%;AAS;0,17;wt%;COL;;;;;;;;;;0,21;wt%;TITR;0,64;wt%;TITR;;;;;;;;;;50;ppm;Unknown;41;ppm;Unknown;70;ppm;Unknown;;;;74;ppm;Unknown;1,5;ppm;INAA;;;;0,04;ppm;INAA;;;;;;;;;;;;;;;;;;;;;;;;;;;;;;;;;;;;;;;;;;;;;;;;;;;;;;;;;;;;;;;;;;;;;;;;;;;;;;;;;;;;;;;;;;;;;;;;;;;;;;;;;;;;;;;;;;;;;;;;;12,8;ppm;INAA;28;ppm;INAA;;;;15;ppm;INAA;4,2;ppm;INAA;1,25;ppm;INAA;;;;0,68;ppm;INAA;;;;;;;;;;;;;2,5;ppm;INAA;0,35;ppm;INAA;0,04;ppm;TITR;0,02;ppm;INAA;0,09;ppm;INAA;;;;;;;;;;;;;;;;;;;;;;1,5;ppm;INAA;;;;;;;149;ppm;Unknown;;;;;;;;;;;;;41;ppm;Unknown;61;ppm;Unknown;0,53;ppm;INAA;70;ppm;Unknown;;;;;;;3,1;ppm;INAA;;;;;;;;;;;;;;;;;;;;;;10;ppm;ICP;50;ppm;Unknown;;;;;;;;;;6,1;ppm;Unknown;4,5;ppm;Unknown;15;ppm;Unknown;;;;;;;;;;0,04;ppm;INAA;0,27;ppm;INAA;35;ppm;INAA;;;;181;ppm;Unknown;0,69;ppm;INAA;2,8;ppm;INAA;;;;;;;0,7;ppm;INAA;;;;;;;24;ppm;Unknown;74;ppm;Unknown;119;ppm;Unknown;;;;;;;;;;;;;;;;;;;;;;;;;1,5;ppm;INAA;1,5;ppm;INAA;;;;0,21;wt%;TITR;0,64;wt%;TITR;0,21;wt%;TITR;0,64;wt%;TITR;;;
GROSCAMP-W-241958;;GROSSMAN-CAMP;GROSSMAN, 1991;40,2022;-76,8667;0,001;;;CONTINENTAL_RIFT;;;;"AAS; COL; ES; ICP; INAA; TITR; Unknown";WHOLE ROCK;IGNEOUS:VOLCANIC:MAFIC;DIABASE;;52,6;wt%;COL;1,34;wt%;COL;14,4;wt%;COL;;;;2,43;wt%;Unknown;;;;8,8;wt%;TITR;;;;;;;0,17;wt%;AAS;6,31;wt%;AAS;10,5;wt%;Unknown;;;;2,06;wt%;Unknown;0,86;wt%;AAS;0,16;wt%;COL;;;;;;;;;;0,17;wt%;TITR;0,72;wt%;TITR;;;;;;;;;;50;ppm;Unknown;47;ppm;Unknown;93;ppm;Unknown;;;;56;ppm;Unknown;1,6;ppm;INAA;;;;0,03;ppm;INAA;;;;;;;;;;;;;;;;;;;;;;;;;;;;;;;;;;;;;;;;;;;;;;;;;;;;;;;;;;;;;;;;;;;;;;;;;;;;;;;;;;;;;;;;;;;;;;;;;;;;;;;;;;;;;;;;;;;;;;;;;12,2;ppm;INAA;26;ppm;INAA;;;;13;ppm;INAA;3,7;ppm;INAA;1,1;ppm;INAA;;;;0,69;ppm;INAA;;;;;;;;;;;;;2,3;ppm;INAA;0,33;ppm;INAA;0,02;ppm;TITR;0,02;ppm;INAA;0,13;ppm;INAA;;;;;;;;;;;;;;;;;;;;;;1,6;ppm;INAA;;;;26,9;ppm;ES;206;ppm;Unknown;;;;;;;;;;;;;47;ppm;Unknown;110;ppm;Unknown;0,98;ppm;INAA;93;ppm;Unknown;;;;;;;2,85;ppm;INAA;;;;;;;;;;;;;;;;;;;;;;8,8;ppm;ICP;50;ppm;Unknown;;;;;;;;;;7,2;ppm;Unknown;6,6;ppm;Unknown;29;ppm;Unknown;;;;;;;;;;0,03;ppm;INAA;0,23;ppm;INAA;36;ppm;INAA;;;;191;ppm;Unknown;0,67;ppm;INAA;2,8;ppm;INAA;;;;;;;0,69;ppm;INAA;;;;;;;28;ppm;Unknown;56;ppm;Unknown;106;ppm;Unknown;;;;;;;;;;;;;;;;;;;;;;;;;1,6;ppm;INAA;1,6;ppm;INAA;;;;0,17;wt%;TITR;0,72;wt%;TITR;0,17;wt%;TITR;0,72;wt%;TITR;;;
GROSCAMP-W-241959;;GROSSMAN-CAMP;GROSSMAN, 1991;40,2022;-76,8667;0,001;;;CONTINENTAL_RIFT;;;;"AAS; COL; ICP; INAA; TITR; Unknown";WHOLE ROCK;IGNEOUS:VOLCANIC:MAFIC;DIABASE;;55,6;wt%;COL;0,83;wt%;COL;11;wt%;COL;;;;0,8;wt%;Unknown;;;;2,3;wt%;TITR;;;;;;;0,1;wt%;AAS;4,17;wt%;AAS;14,4;wt%;Unknown;;;;4,84;wt%;Unknown;0,45;wt%;AAS;;;;;;;;;;;;;0,16;wt%;TITR;0,66;wt%;TITR;;;;;;;;;;21;ppm;Unknown;11,6;ppm;Unknown;79;ppm;Unknown;;;;59;ppm;Unknown;;;;;;;0,03;ppm;INAA;;;;;;;;;;;;;;;;;;;;;;;;;;;;;;;;;;;;;;;;;;;;;;;;;;;;;;;;;;;;;;;;;;;;;;;;;;;;;;;;;;;;;;;;;;;;;;;;;;;;;;;;;;;;;;;;;;;;;;;;;8,3;ppm;INAA;17;ppm;INAA;;;;9,1;ppm;INAA;2,19;ppm;INAA;0,63;ppm;INAA;;;;0,42;ppm;INAA;;;;;;;;;;;;;1,4;ppm;INAA;0,19;ppm;INAA;5,2;ppm;TITR;0,01;ppm;INAA;0,05;ppm;INAA;;;;;;;;;;;;;;;;;;;;;;;;;;;;;;;85;ppm;Unknown;;;;;;;;;;;;;11,6;ppm;Unknown;106;ppm;Unknown;;;;79;ppm;Unknown;;;;;;;3,5;ppm;INAA;;;;;;;;;;;;;;;;;;;;;;4,6;ppm;ICP;21;ppm;Unknown;;;;;;;;;;1,3;ppm;Unknown;;;;10;ppm;Unknown;;;;;;;;;;0,03;ppm;INAA;;;;34;ppm;INAA;;;;121;ppm;Unknown;0,54;ppm;INAA;2;ppm;INAA;;;;;;;;;;;;;;;;17;ppm;Unknown;59;ppm;Unknown;120;ppm;Unknown;;;;;;;;;;;;;;;;;;;;;;;;;;;;;;;;;;0,16;wt%;TITR;0,66;wt%;TITR;0,16;wt%;TITR;0,66;wt%;TITR;;;
GROSCAMP-W-241960;;GROSSMAN-CAMP;GROSSMAN, 1991;40,2022;-76,8667;0,001;;;CONTINENTAL_RIFT;;;;"AAS; COL; ES; ICP; INAA; TITR; Unknown";WHOLE ROCK;IGNEOUS:VOLCANIC:MAFIC;DIABASE;;52,7;wt%;COL;1,22;wt%;COL;15;wt%;COL;;;;2,29;wt%;Unknown;;;;8,5;wt%;TITR;;;;;;;0,17;wt%;AAS;5,92;wt%;AAS;10,7;wt%;Unknown;;;;2,4;wt%;Unknown;0,78;wt%;AAS;0,15;wt%;COL;;;;;;;;;;0,2;wt%;TITR;0,59;wt%;TITR;;;;;;;;;;58;ppm;Unknown;43;ppm;Unknown;118;ppm;Unknown;;;;71;ppm;Unknown;1,4;ppm;INAA;;;;0,03;ppm;INAA;;;;;;;;;;;;;;;;;;;;;;;;;;;;;;;;;;;;;;;;;;;;;;;;;;;;;;;;;;;;;;;;;;;;;;;;;;;;;;;;;;;;;;;;;;;;;;;;;;;;;;;;;;;;;;;;;;;;;;;;;13,4;ppm;INAA;27,4;ppm;INAA;;;;14;ppm;INAA;4;ppm;INAA;1,16;ppm;INAA;;;;0,64;ppm;INAA;;;;;;;;;;;;;2,4;ppm;INAA;0,33;ppm;INAA;0,02;ppm;TITR;0,02;ppm;INAA;0,1;ppm;INAA;;;;;;;;;;;;;;;;;;;;;;1,4;ppm;INAA;;;;22,4;ppm;ES;207;ppm;Unknown;;;;;;;;;;;;;43;ppm;Unknown;99;ppm;Unknown;0,67;ppm;INAA;118;ppm;Unknown;;;;;;;2,9;ppm;INAA;;;;;;;;;;;;;;;;;;;;;;8,5;ppm;ICP;58;ppm;Unknown;;;;;;;;;;5,8;ppm;Unknown;5,8;ppm;Unknown;36;ppm;Unknown;;;;;;;;;;0,03;ppm;INAA;0,27;ppm;INAA;34;ppm;INAA;;;;200;ppm;Unknown;0,69;ppm;INAA;2,7;ppm;INAA;;;;;;;0,69;ppm;INAA;;;;;;;34;ppm;Unknown;71;ppm;Unknown;118;ppm;Unknown;;;;;;;;;;;;;;;;;;;;;;;;;1,4;ppm;INAA;1,4;ppm;INAA;;;;0,2;wt%;TITR;0,59;wt%;TITR;0,2;wt%;TITR;0,59;wt%;TITR;;;
GROSCAMP-W-241961;;GROSSMAN-CAMP;GROSSMAN, 1991;40,2022;-76,8667;0,001;;;CONTINENTAL_RIFT;;;;"AAS; COL; ICP; INAA; TITR; Unknown";WHOLE ROCK;IGNEOUS:VOLCANIC:MAFIC;DIABASE;;52,7;wt%;COL;1,33;wt%;COL;14,8;wt%;COL;;;;2,46;wt%;Unknown;;;;7,1;wt%;TITR;;;;;;;0,15;wt%;AAS;6,23;wt%;AAS;10,9;wt%;Unknown;;;;2,88;wt%;Unknown;0,77;wt%;AAS;0,16;wt%;COL;;;;;;;;;;0,25;wt%;TITR;0,63;wt%;TITR;;;;;;;;;;60;ppm;Unknown;39;ppm;Unknown;69;ppm;Unknown;;;;76;ppm;Unknown;;;;;;;0,03;ppm;INAA;;;;;;;;;;;;;;;;;;;;;;;;;;;;;;;;;;;;;;;;;;;;;;;;;;;;;;;;;;;;;;;;;;;;;;;;;;;;;;;;;;;;;;;;;;;;;;;;;;;;;;;;;;;;;;;;;;;;;;;;;13,1;ppm;INAA;27,5;ppm;INAA;;;;14;ppm;INAA;3,9;ppm;INAA;1,2;ppm;INAA;;;;0,69;ppm;INAA;;;;;;;;;;;;;2,3;ppm;INAA;0,34;ppm;INAA;0,03;ppm;TITR;0,02;ppm;INAA;0,08;ppm;INAA;;;;;;;;;;;;;;;;;;;;;;;;;;;;;;;182;ppm;Unknown;;;;;;;;;;;;;39;ppm;Unknown;120;ppm;Unknown;0,74;ppm;INAA;69;ppm;Unknown;;;;;;;2,92;ppm;INAA;;;;;;;;;;;;;;;;;;;;;;9;ppm;ICP;60;ppm;Unknown;;;;;;;;;;5,5;ppm;Unknown;4,3;ppm;Unknown;22;ppm;Unknown;;;;;;;;;;0,03;ppm;INAA;;;;35;ppm;INAA;;;;200;ppm;Unknown;0,63;ppm;INAA;2,6;ppm;INAA;;;;;;;0,61;ppm;INAA;;;;;;;25;ppm;Unknown;76;ppm;Unknown;113;ppm;Unknown;;;;;;;;;;;;;;;;;;;;;;;;;;;;;;;;;;0,25;wt%;TITR;0,63;wt%;TITR;0,25;wt%;TITR;0,63;wt%;TITR;;;
GROSCAMP-W-241962;;GROSSMAN-CAMP;GROSSMAN, 1991;40,2022;-76,8667;0,001;;;CONTINENTAL_RIFT;;;;"AAS; COL; ES; ICP; INAA; TITR; Unknown";WHOLE ROCK;IGNEOUS:VOLCANIC:MAFIC;DIABASE;;52,7;wt%;COL;1,21;wt%;COL;14,5;wt%;COL;;;;2,58;wt%;Unknown;;;;8,4;wt%;TITR;;;;;;;0,18;wt%;AAS;6,52;wt%;AAS;10,7;wt%;Unknown;;;;2,32;wt%;Unknown;0,72;wt%;AAS;0,14;wt%;COL;;;;;;;;;;0,25;wt%;TITR;0,67;wt%;TITR;;;;;;;;;;68;ppm;Unknown;45;ppm;Unknown;96;ppm;Unknown;;;;86;ppm;Unknown;;;;;;;0,03;ppm;INAA;;;;;;;;;;;;;;;;;;;;;;;;;;;;;;;;;;;;;;;;;;;;;;;;;;;;;;;;;;;;;;;;;;;;;;;;;;;;;;;;;;;;;;;;;;;;;;;;;;;;;;;;;;;;;;;;;;;;;;;;;11,8;ppm;INAA;25,4;ppm;INAA;;;;11;ppm;INAA;3,6;ppm;INAA;1,2;ppm;INAA;;;;0,69;ppm;INAA;;;;;;;;;;;;;2,4;ppm;INAA;0,33;ppm;INAA;0,02;ppm;TITR;0,02;ppm;INAA;0,07;ppm;INAA;;;;;;;;;;;;;;;;;;;;;;;;;;;;33;ppm;ES;183;ppm;Unknown;;;;;;;;;;;;;45;ppm;Unknown;170;ppm;Unknown;0,86;ppm;INAA;96;ppm;Unknown;;;;;;;2,9;ppm;INAA;;;;;;;;;;;;;;;;;;;;;;8,1;ppm;ICP;68;ppm;Unknown;;;;;;;;;;6,4;ppm;Unknown;7,7;ppm;Unknown;27;ppm;Unknown;;;;;;;;;;0,03;ppm;INAA;;;;36;ppm;INAA;;;;191;ppm;Unknown;0,59;ppm;INAA;2,6;ppm;INAA;;;;;;;0,62;ppm;INAA;;;;;;;26;ppm;Unknown;86;ppm;Unknown;110;ppm;Unknown;;;;;;;;;;;;;;;;;;;;;;;;;;;;;;;;;;0,25;wt%;TITR;0,67;wt%;TITR;0,25;wt%;TITR;0,67;wt%;TITR;;;
GROSCAMP-W-241963;;GROSSMAN-CAMP;GROSSMAN, 1991;40,2022;-76,8667;0,001;;;CONTINENTAL_RIFT;;;;"AAS; COL; ES; ICP; INAA; TITR; Unknown";WHOLE ROCK;IGNEOUS:VOLCANIC:MAFIC;DIABASE;;50,3;wt%;COL;1,16;wt%;COL;14,1;wt%;COL;;;;2,78;wt%;Unknown;;;;6,7;wt%;TITR;;;;;;;0,17;wt%;AAS;6,18;wt%;AAS;12,5;wt%;Unknown;;;;2,44;wt%;Unknown;0,99;wt%;AAS;0,11;wt%;COL;;;;;;;;;;0,63;wt%;TITR;0,97;wt%;TITR;;;;;;;;;;71;ppm;Unknown;40;ppm;Unknown;76;ppm;Unknown;;;;67;ppm;Unknown;2,4;ppm;INAA;;;;0,04;ppm;INAA;;;;;;;;;;;;;;;;;;;;;;;;;;;;;;;;;;;;;;;;;;;;;;;;;;;;;;;;;;;;;;;;;;;;;;;;;;;;;;;;;;;;;;;;;;;;;;;;;;;;;;;;;;;;;;;;;;;;;;;;;11,7;ppm;INAA;24,6;ppm;INAA;;;;13;ppm;INAA;3,5;ppm;INAA;1,05;ppm;INAA;;;;0,67;ppm;INAA;;;;;;;;;;;;;2,3;ppm;INAA;0,33;ppm;INAA;1,9;ppm;TITR;0,02;ppm;INAA;0,06;ppm;INAA;;;;;;;;;;;;;;;;;;;;;;2,4;ppm;INAA;;;;22,4;ppm;ES;261;ppm;Unknown;;;;;;;;;;;;;40;ppm;Unknown;214;ppm;Unknown;0,82;ppm;INAA;76;ppm;Unknown;;;;;;;2,9;ppm;INAA;;;;;;;;;;;;;;;;;;;;;;8,5;ppm;ICP;71;ppm;Unknown;;;;;;;;;;6,6;ppm;Unknown;8,6;ppm;Unknown;30;ppm;Unknown;;;;;;;;;;0,04;ppm;INAA;0,18;ppm;INAA;37;ppm;INAA;;;;206;ppm;Unknown;0,54;ppm;INAA;2,7;ppm;INAA;;;;;;;0,56;ppm;INAA;;;;;;;23;ppm;Unknown;67;ppm;Unknown;106;ppm;Unknown;;;;;;;;;;;;;;;;;;;;;;;;;2,4;ppm;INAA;2,4;ppm;INAA;;;;0,63;wt%;TITR;0,97;wt%;TITR;0,63;wt%;TITR;0,97;wt%;TITR;;;