SAMPLE ID;IGSN;EXPEDITION ID;REFERENCES;LATITUDE;LONGITUDE;LOC PREC;MIN ELEVATION;MAX ELEVATION;TECTONIC SETTING;MIN AGE;AGE;MAX AGE;METHOD;ANALYZED MATERIAL;ROCK TYPE;ROCK NAME;MINERAL;SIO2;SIO2 Units;SIO2 Method;TIO2;TIO2 Units;TIO2 Method;AL2O3;AL2O3 Units;AL2O3 Method;CR2O3;CR2O3 Units;CR2O3 Method;FE2O3;FE2O3 Units;FE2O3 Method;FE2O3T;FE2O3T Units;FE2O3T Method;FEO;FEO Units;FEO Method;FEOT;FEOT Units;FEOT Method;NIO;NIO Units;NIO Method;MNO;MNO Units;MNO Method;MGO;MGO Units;MGO Method;CAO;CAO Units;CAO Method;SRO;SRO Units;SRO Method;NA2O;NA2O Units;NA2O Method;K2O;K2O Units;K2O Method;P2O5;P2O5 Units;P2O5 Method;BAO;BAO Units;BAO Method;LOI;LOI Units;LOI Method;H2O;H2O Units;H2O Method;H2O_M;H2O_M Units;H2O_M Method;H2O_P;H2O_P Units;H2O_P Method;SO3;SO3 Units;SO3 Method;COO;COO Units;COO Method;MN;MN Units;MN Method;NI;NI Units;NI Method;CO;CO Units;CO Method;CU;CU Units;CU Method;CD;CD Units;CD Method;ZN;ZN Units;ZN Method;AS;AS Units;AS Method;AG;AG Units;AG Method;S;S Units;S Method;ZRO2;ZRO2 Units;ZRO2 Method;AL;AL Units;AL Method;CA;CA Units;CA Method;SR87_SR86;SR87_SR86 Units;SR87_SR86 Method;SR87_SR86_INI;SR87_SR86_INI Units;SR87_SR86_INI Method;RB87_SR86;RB87_SR86 Units;RB87_SR86 Method;ND143_ND144;ND143_ND144 Units;ND143_ND144 Method;ND143_ND144_INI;ND143_ND144_INI Units;ND143_ND144_INI Method;SM147_ND144;SM147_ND144 Units;SM147_ND144 Method;E_ND;E_ND Units;E_ND Method;E_ND_INI;E_ND_INI Units;E_ND_INI Method;PB204_PB206;PB204_PB206 Units;PB204_PB206 Method;PB206_PB204;PB206_PB204 Units;PB206_PB204 Method;PB206_PB204_INI;PB206_PB204_INI Units;PB206_PB204_INI Method;PB207_PB204;PB207_PB204 Units;PB207_PB204 Method;PB207_PB204_INI;PB207_PB204_INI Units;PB207_PB204_INI Method;PB207_PB206;PB207_PB206 Units;PB207_PB206 Method;PB208_PB204;PB208_PB204 Units;PB208_PB204 Method;PB208_PB204_INI;PB208_PB204_INI Units;PB208_PB204_INI Method;PB208_PB206;PB208_PB206 Units;PB208_PB206 Method;HF176_HF177;HF176_HF177 Units;HF176_HF177 Method;RE187_OS188;RE187_OS188 Units;RE187_OS188 Method;OS187_OS188;OS187_OS188 Units;OS187_OS188 Method;OS187_OS188_INI;OS187_OS188_INI Units;OS187_OS188_INI Method;G_OS;G_OS Units;G_OS Method;G_OS_INI;G_OS_INI Units;G_OS_INI Method;ND143_ND144_INI;ND143_ND144_INI Units;ND143_ND144_INI Method;PB206_PB204_INI;PB206_PB204_INI Units;PB206_PB204_INI Method;PB207_PB204_INI;PB207_PB204_INI Units;PB207_PB204_INI Method;PB208_PB204_INI;PB208_PB204_INI Units;PB208_PB204_INI Method;SR87_SR86_INI;SR87_SR86_INI Units;SR87_SR86_INI Method;HE;HE Units;HE Method;HE3;HE3 Units;HE3 Method;HE3_HE4_R_RA;HE3_HE4_R_RA Units;HE3_HE4_R_RA Method;AR36;AR36 Units;AR36 Method;AR40;AR40 Units;AR40 Method;AR40_AR36;AR40_AR36 Units;AR40_AR36 Method;NE20;NE20 Units;NE20 Method;NE20_NE22;NE20_NE22 Units;NE20_NE22 Method;NE21_NE22;NE21_NE22 Units;NE21_NE22 Method;LA;LA Units;LA Method;CE;CE Units;CE Method;PR;PR Units;PR Method;ND;ND Units;ND Method;SM;SM Units;SM Method;EU;EU Units;EU Method;GD;GD Units;GD Method;TB;TB Units;TB Method;DY;DY Units;DY Method;HO;HO Units;HO Method;ER;ER Units;ER Method;TM;TM Units;TM Method;YB;YB Units;YB Method;LU;LU Units;LU Method;CO2;CO2 Units;CO2 Method;F;F Units;F Method;CL;CL Units;CL Method;U238_PB204;U238_PB204 Units;U238_PB204 Method;TH230_TH232;TH230_TH232 Units;TH230_TH232 Method;RA226_ACTIVITY;RA226_ACTIVITY Units;RA226_ACTIVITY Method;PB210_RA226;PB210_RA226 Units;PB210_RA226 Method;PB210_ACTIVITY;PB210_ACTIVITY Units;PB210_ACTIVITY Method;AG;AG Units;AG Method;AL;AL Units;AL Method;AS;AS Units;AS Method;AU;AU Units;AU Method;B;B Units;B Method;BA;BA Units;BA Method;BE;BE Units;BE Method;BI;BI Units;BI Method;CA;CA Units;CA Method;CD;CD Units;CD Method;CO;CO Units;CO Method;CR;CR Units;CR Method;CS;CS Units;CS Method;CU;CU Units;CU Method;GA;GA Units;GA Method;GER;GER Units;GER Method;HF;HF Units;HF Method;INDIUM;INDIUM Units;INDIUM Method;IR;IR Units;IR Method;K;K Units;K Method;LI;LI Units;LI Method;MN;MN Units;MN Method;MO;MO Units;MO Method;NA;NA Units;NA Method;NB;NB Units;NB Method;NI;NI Units;NI Method;OS;OS Units;OS Method;P;P Units;P Method;PB;PB Units;PB Method;PD;PD Units;PD Method;PT;PT Units;PT Method;RB;RB Units;RB Method;RE;RE Units;RE Method;RH;RH Units;RH Method;RU;RU Units;RU Method;S;S Units;S Method;SB;SB Units;SB Method;SC;SC Units;SC Method;SN;SN Units;SN Method;SR;SR Units;SR Method;TA;TA Units;TA Method;TH;TH Units;TH Method;TI;TI Units;TI Method;TL;TL Units;TL Method;U;U Units;U Method;V;V Units;V Method;W;W Units;W Method;Y;Y Units;Y Method;ZN;ZN Units;ZN Method;ZR;ZR Units;ZR Method;DELTA_O18;DELTA_O18 Units;DELTA_O18 Method;DELTA_C13;DELTA_C13 Units;DELTA_C13 Method;DELTA_MO98;DELTA_MO98 Units;DELTA_MO98 Method;DELTA_ZN66;DELTA_ZN66 Units;DELTA_ZN66 Method;DELTA_ZN68;DELTA_ZN68 Units;DELTA_ZN68 Method;OS188;OS188 Units;OS188 Method;FE3P_FET;FE3P_FET Units;FE3P_FET Method;TI;TI Units;TI Method;AS;AS Units;AS Method;AS;AS Units;AS Method;GER;GER Units;GER Method;H2O_M;H2O_M Units;H2O_M Method;H2O_P;H2O_P Units;H2O_P Method;H2O_M;H2O_M Units;H2O_M Method;H2O_P;H2O_P Units;H2O_P Method;INDIUM;INDIUM Units;INDIUM Method
GROSCAMP-W-217702;;GROSSMAN-CAMP;GROSSMAN, 1991;38,6717;-77,6056;0,001;;;CONTINENTAL_RIFT;;;;"AAS; COL; ICP; INAA; TITR; Unknown";WHOLE ROCK;IGNEOUS:VOLCANIC:MAFIC;DIABASE;;50,5;wt%;COL;0,65;wt%;COL;15,3;wt%;COL;;;;1,7;wt%;Unknown;;;;8,8;wt%;TITR;;;;;;;0,22;wt%;AAS;8,3;wt%;AAS;11,3;wt%;Unknown;;;;2,13;wt%;Unknown;0,36;wt%;AAS;0,1;wt%;COL;;;;;;;;;;0,16;wt%;TITR;0,65;wt%;TITR;;;;;;;;;;96;ppm;Unknown;49;ppm;Unknown;57;ppm;Unknown;;;;92;ppm;Unknown;;;;;;;;;;;;;;;;;;;;;;;;;;;;;;;;;;;;;;;;;;;;;;;;;;;;;;;;;;;;;;;;;;;;;;;;;;;;;;;;;;;;;;;;;;;;;;;;;;;;;;;;;;;;;;;;;;;;;;;;;;;;;;;;;;5,6;ppm;INAA;12;ppm;INAA;;;;;;;1,98;ppm;INAA;0,66;ppm;INAA;;;;0,44;ppm;INAA;;;;;;;;;;;;;1,6;ppm;INAA;0,3;ppm;INAA;0,07;ppm;TITR;;;;;;;;;;;;;;;;;;;;;;;;;;;;;;;;;;;;;94;ppm;Unknown;;;;;;;;;;;;;49;ppm;Unknown;267;ppm;Unknown;0,89;ppm;INAA;57;ppm;Unknown;;;;;;;1,4;ppm;INAA;;;;;;;;;;;;;;;;;;;;;;4,1;ppm;ICP;96;ppm;Unknown;;;;;;;;;;1,3;ppm;Unknown;1,4;ppm;Unknown;11;ppm;Unknown;;;;;;;;;;;;;;;;41;ppm;INAA;;;;124;ppm;Unknown;0,19;ppm;INAA;1,2;ppm;INAA;;;;;;;0,31;ppm;INAA;;;;;;;22;ppm;Unknown;92;ppm;Unknown;60;ppm;Unknown;;;;;;;;;;;;;;;;;;;;;;;;;;;;;;;;;;0,16;wt%;TITR;0,65;wt%;TITR;0,16;wt%;TITR;0,65;wt%;TITR;;;
GROSCAMP-W-217703;;GROSSMAN-CAMP;GROSSMAN, 1991;38,6717;-77,6056;0,001;;;CONTINENTAL_RIFT;;;;"AAS; COL; ICP; INAA; TITR; Unknown";WHOLE ROCK;IGNEOUS:VOLCANIC:MAFIC;DIABASE;;51,3;wt%;COL;0,71;wt%;COL;15,7;wt%;COL;;;;1,7;wt%;Unknown;;;;8,4;wt%;TITR;;;;;;;0,19;wt%;AAS;7,8;wt%;AAS;11,4;wt%;Unknown;;;;2,16;wt%;Unknown;0,37;wt%;AAS;0,11;wt%;COL;;;;;;;;;;0,18;wt%;TITR;0,48;wt%;TITR;;;;;;;;;;92;ppm;Unknown;46;ppm;Unknown;52;ppm;Unknown;;;;78;ppm;Unknown;;;;;;;;;;;;;;;;;;;;;;;;;;;;;;;;;;;;;;;;;;;;;;;;;;;;;;;;;;;;;;;;;;;;;;;;;;;;;;;;;;;;;;;;;;;;;;;;;;;;;;;;;;;;;;;;;;;;;;;;;;;;;;;;;;6,2;ppm;INAA;12;ppm;INAA;;;;7,8;ppm;INAA;2,25;ppm;INAA;0,7;ppm;INAA;;;;0,49;ppm;INAA;;;;;;;;;;;;;1,9;ppm;INAA;0,32;ppm;INAA;0,05;ppm;TITR;;;;;;;;;;;;;;;;;;;;;;;;;;;;;;;;;;;;;99;ppm;Unknown;;;;;;;;;;;;;46;ppm;Unknown;232;ppm;Unknown;0,62;ppm;INAA;52;ppm;Unknown;;;;;;;1,5;ppm;INAA;;;;;;;;;;;;;;;;;;;;;;3,8;ppm;ICP;92;ppm;Unknown;;;;;;;;;;0,8;ppm;Unknown;2,3;ppm;Unknown;14;ppm;Unknown;;;;;;;;;;;;;;;;40;ppm;INAA;;;;148;ppm;Unknown;0,22;ppm;INAA;1,3;ppm;INAA;;;;;;;0,38;ppm;INAA;;;;;;;21;ppm;Unknown;78;ppm;Unknown;60;ppm;Unknown;;;;;;;;;;;;;;;;;;;;;;;;;;;;;;;;;;0,18;wt%;TITR;0,48;wt%;TITR;0,18;wt%;TITR;0,48;wt%;TITR;;;
GROSCAMP-W-217704;;GROSSMAN-CAMP;GROSSMAN, 1991;38,6717;-77,6056;0,001;;;CONTINENTAL_RIFT;;;;"AAS; COL; ICP; INAA; TITR; Unknown";WHOLE ROCK;IGNEOUS:VOLCANIC:MAFIC;DIABASE;;51,3;wt%;COL;0,71;wt%;COL;15,9;wt%;COL;;;;1,5;wt%;Unknown;;;;8,3;wt%;TITR;;;;;;;0,18;wt%;AAS;7,9;wt%;AAS;11,3;wt%;Unknown;;;;2,37;wt%;Unknown;0,45;wt%;AAS;0,11;wt%;COL;;;;;;;;;;0,12;wt%;TITR;0,57;wt%;TITR;;;;;;;;;;92;ppm;Unknown;49;ppm;Unknown;58;ppm;Unknown;;;;93;ppm;Unknown;;;;;;;;;;;;;;;;;;;;;;;;;;;;;;;;;;;;;;;;;;;;;;;;;;;;;;;;;;;;;;;;;;;;;;;;;;;;;;;;;;;;;;;;;;;;;;;;;;;;;;;;;;;;;;;;;;;;;;;;;;;;;;;;;;8;ppm;INAA;15,2;ppm;INAA;;;;7,3;ppm;INAA;2,13;ppm;INAA;0,8;ppm;INAA;;;;0,54;ppm;INAA;;;;;;;;;;;;;2,1;ppm;INAA;0,43;ppm;INAA;0,05;ppm;TITR;;;;;;;;;;;;;;;;;;;;;;;;;;;;;;;;;;;;;123;ppm;Unknown;;;;;;;;;;;;;49;ppm;Unknown;295;ppm;Unknown;0,92;ppm;INAA;58;ppm;Unknown;;;;;;;1,5;ppm;INAA;;;;;;;;;;;;;;;;;;;;;;4,1;ppm;ICP;92;ppm;Unknown;;;;;;;;;;0,5;ppm;Unknown;1,5;ppm;Unknown;11;ppm;Unknown;;;;;;;;;;;;;;;;44;ppm;INAA;;;;137;ppm;Unknown;0,21;ppm;INAA;1,6;ppm;INAA;;;;;;;;;;;;;;;;19;ppm;Unknown;93;ppm;Unknown;63;ppm;Unknown;;;;;;;;;;;;;;;;;;;;;;;;;;;;;;;;;;0,12;wt%;TITR;0,57;wt%;TITR;0,12;wt%;TITR;0,57;wt%;TITR;;;
GROSCAMP-W-217705;;GROSSMAN-CAMP;GROSSMAN, 1991;38,6717;-77,6056;0,001;;;CONTINENTAL_RIFT;;;;"AAS; COL; ICP; INAA; TITR; Unknown";WHOLE ROCK;IGNEOUS:VOLCANIC:MAFIC;DIABASE;;50,9;wt%;COL;0,75;wt%;COL;15,3;wt%;COL;;;;1,9;wt%;Unknown;;;;8,6;wt%;TITR;;;;;;;0,19;wt%;AAS;8;wt%;AAS;11;wt%;Unknown;;;;2,09;wt%;Unknown;0,39;wt%;AAS;0,13;wt%;COL;;;;;;;;;;0,22;wt%;TITR;0,49;wt%;TITR;;;;;;;;;;96;ppm;Unknown;47;ppm;Unknown;58;ppm;Unknown;;;;84;ppm;Unknown;;;;;;;;;;;;;;;;;;;;;;;;;;;;;;;;;;;;;;;;;;;;;;;;;;;;;;;;;;;;;;;;;;;;;;;;;;;;;;;;;;;;;;;;;;;;;;;;;;;;;;;;;;;;;;;;;;;;;;;;;;;;;;;;;;6,5;ppm;INAA;14,1;ppm;INAA;;;;8,7;ppm;INAA;2,27;ppm;INAA;0,71;ppm;INAA;;;;0,47;ppm;INAA;;;;;;;;;;;;;2,01;ppm;INAA;0,35;ppm;INAA;0,06;ppm;TITR;;;;;;;;;;;;;;;;;;;;;;;;;;;;;;;;;;;;;86;ppm;Unknown;;;;;;;;;;;;;47;ppm;Unknown;236;ppm;Unknown;0,92;ppm;INAA;58;ppm;Unknown;;;;;;;1,57;ppm;INAA;;;;;;;;;;;;;;;;;;;;;;4,7;ppm;ICP;96;ppm;Unknown;;;;;;;;;;;;;1,7;ppm;Unknown;13;ppm;Unknown;;;;;;;;;;;;;;;;40;ppm;INAA;;;;134;ppm;Unknown;0,25;ppm;INAA;1,5;ppm;INAA;;;;;;;0,41;ppm;INAA;;;;;;;23;ppm;Unknown;84;ppm;Unknown;65;ppm;Unknown;;;;;;;;;;;;;;;;;;;;;;;;;;;;;;;;;;0,22;wt%;TITR;0,49;wt%;TITR;0,22;wt%;TITR;0,49;wt%;TITR;;;
GROSCAMP-W-217706;;GROSSMAN-CAMP;GROSSMAN, 1991;38,6717;-77,6056;0,001;;;CONTINENTAL_RIFT;;;;"AAS; COL; ICP; INAA; TITR; Unknown";WHOLE ROCK;IGNEOUS:VOLCANIC:MAFIC;DIABASE;;51;wt%;COL;0,77;wt%;COL;14,9;wt%;COL;;;;2,1;wt%;Unknown;;;;8,8;wt%;TITR;;;;;;;0,19;wt%;AAS;8,1;wt%;AAS;11,1;wt%;Unknown;;;;2,02;wt%;Unknown;0,33;wt%;AAS;0,12;wt%;COL;;;;;;;;;;0,22;wt%;TITR;0,44;wt%;TITR;;;;;;;;;;100;ppm;Unknown;48;ppm;Unknown;64;ppm;Unknown;;;;85;ppm;Unknown;;;;;;;;;;;;;;;;;;;;;;;;;;;;;;;;;;;;;;;;;;;;;;;;;;;;;;;;;;;;;;;;;;;;;;;;;;;;;;;;;;;;;;;;;;;;;;;;;;;;;;;;;;;;;;;;;;;;;;;;;;;;;;;;;;6,2;ppm;INAA;13;ppm;INAA;;;;9,2;ppm;INAA;2,31;ppm;INAA;0,77;ppm;INAA;;;;0,48;ppm;INAA;;;;;;;;;;;;;1,9;ppm;INAA;0,35;ppm;INAA;0,04;ppm;TITR;;;;;;;;;;;;;;;;;;;;;;;;;;;;;;;;;;;;;120;ppm;Unknown;;;;;;;;;;;;;48;ppm;Unknown;223;ppm;Unknown;0,84;ppm;INAA;64;ppm;Unknown;;;;;;;1,5;ppm;INAA;;;;;;;;;;;;;;;;;;;;;;5,3;ppm;ICP;100;ppm;Unknown;;;;;;;;;;0,6;ppm;Unknown;1,5;ppm;Unknown;11;ppm;Unknown;;;;;;;;;;;;;;;;41;ppm;INAA;;;;132;ppm;Unknown;0,36;ppm;INAA;1,4;ppm;INAA;;;;;;;;;;;;;;;;21;ppm;Unknown;85;ppm;Unknown;66;ppm;Unknown;;;;;;;;;;;;;;;;;;;;;;;;;;;;;;;;;;0,22;wt%;TITR;0,44;wt%;TITR;0,22;wt%;TITR;0,44;wt%;TITR;;;
GROSCAMP-W-217707;;GROSSMAN-CAMP;GROSSMAN, 1991;38,6717;-77,6056;0,001;;;CONTINENTAL_RIFT;;;;"AAS; COL; ICP; INAA; TITR; Unknown";WHOLE ROCK;IGNEOUS:VOLCANIC:MAFIC;DIABASE;;51,1;wt%;COL;0,77;wt%;COL;15,3;wt%;COL;;;;1,7;wt%;Unknown;;;;8,9;wt%;TITR;;;;;;;0,22;wt%;AAS;7,7;wt%;AAS;11,3;wt%;Unknown;;;;2,16;wt%;Unknown;0,35;wt%;AAS;0,11;wt%;COL;;;;;;;;;;0,21;wt%;TITR;0,4;wt%;TITR;;;;;;;;;;92;ppm;Unknown;47;ppm;Unknown;75;ppm;Unknown;;;;96;ppm;Unknown;;;;;;;;;;;;;;;;;;;;;;;;;;;;;;;;;;;;;;;;;;;;;;;;;;;;;;;;;;;;;;;;;;;;;;;;;;;;;;;;;;;;;;;;;;;;;;;;;;;;;;;;;;;;;;;;;;;;;;;;;;;;;;;;;;5,3;ppm;INAA;12;ppm;INAA;;;;7,5;ppm;INAA;2,24;ppm;INAA;0,76;ppm;INAA;;;;0,49;ppm;INAA;;;;;;;;;;;;;2,1;ppm;INAA;0,35;ppm;INAA;0,05;ppm;TITR;;;;;;;;;;;;;;;;;;;;;;;;;;;;;;;;;;;;;87;ppm;Unknown;;;;;;;;;;;;;47;ppm;Unknown;228;ppm;Unknown;0,78;ppm;INAA;75;ppm;Unknown;;;;;;;1,3;ppm;INAA;;;;;;;;;;;;;;;;;;;;;;4,4;ppm;ICP;92;ppm;Unknown;;;;;;;;;;1,8;ppm;Unknown;1,3;ppm;Unknown;19;ppm;Unknown;;;;;;;;;;;;;;;;42;ppm;INAA;;;;137;ppm;Unknown;0,31;ppm;INAA;1,2;ppm;INAA;;;;;;;0,5;ppm;INAA;;;;;;;26;ppm;Unknown;96;ppm;Unknown;66;ppm;Unknown;;;;;;;;;;;;;;;;;;;;;;;;;;;;;;;;;;0,21;wt%;TITR;0,4;wt%;TITR;0,21;wt%;TITR;0,4;wt%;TITR;;;
GROSCAMP-W-217708;;GROSSMAN-CAMP;GROSSMAN, 1991;38,6717;-77,6056;0,001;;;CONTINENTAL_RIFT;;;;"AAS; COL; ICP; INAA; TITR; Unknown";WHOLE ROCK;IGNEOUS:VOLCANIC:MAFIC;DIABASE;;50,7;wt%;COL;0,74;wt%;COL;15,4;wt%;COL;;;;1,6;wt%;Unknown;;;;8,5;wt%;TITR;;;;;;;0,19;wt%;AAS;7,8;wt%;AAS;11,5;wt%;Unknown;;;;2,02;wt%;Unknown;0,33;wt%;AAS;0,11;wt%;COL;;;;;;;;;;0,18;wt%;TITR;0,46;wt%;TITR;;;;;;;;;;93;ppm;Unknown;45;ppm;Unknown;68;ppm;Unknown;;;;79;ppm;Unknown;;;;;;;;;;;;;;;;;;;;;;;;;;;;;;;;;;;;;;;;;;;;;;;;;;;;;;;;;;;;;;;;;;;;;;;;;;;;;;;;;;;;;;;;;;;;;;;;;;;;;;;;;;;;;;;;;;;;;;;;;;;;;;;;;;5,3;ppm;INAA;12;ppm;INAA;;;;;;;2,22;ppm;INAA;0,74;ppm;INAA;;;;0,41;ppm;INAA;;;;;;;;;;;;;1,7;ppm;INAA;0,36;ppm;INAA;0,09;ppm;TITR;;;;;;;;;;;;;;;;;;;;;;;;;;;;;;;;;;;;;84;ppm;Unknown;;;;;;;;;;;;;45;ppm;Unknown;234;ppm;Unknown;0,84;ppm;INAA;68;ppm;Unknown;;;;;;;1,5;ppm;INAA;;;;;;;;;;;;;;;;;;;;;;4;ppm;ICP;93;ppm;Unknown;;;;;;;;;;;;;2,2;ppm;Unknown;17;ppm;Unknown;;;;;;;;;;;;;;;;41;ppm;INAA;;;;138;ppm;Unknown;0,23;ppm;INAA;1,1;ppm;INAA;;;;;;;0,63;ppm;INAA;;;;;;;26;ppm;Unknown;79;ppm;Unknown;66;ppm;Unknown;;;;;;;;;;;;;;;;;;;;;;;;;;;;;;;;;;0,18;wt%;TITR;0,46;wt%;TITR;0,18;wt%;TITR;0,46;wt%;TITR;;;
GROSCAMP-W-217709;;GROSSMAN-CAMP;GROSSMAN, 1991;38,6717;-77,6056;0,001;;;CONTINENTAL_RIFT;;;;"AAS; COL; ICP; INAA; TITR; Unknown";WHOLE ROCK;IGNEOUS:VOLCANIC:MAFIC;DIABASE;;50,8;wt%;COL;0,75;wt%;COL;15,4;wt%;COL;;;;2;wt%;Unknown;;;;8,6;wt%;TITR;;;;;;;0,2;wt%;AAS;7,9;wt%;AAS;11,3;wt%;Unknown;;;;2,16;wt%;Unknown;0,3;wt%;AAS;0,12;wt%;COL;;;;;;;;;;0,28;wt%;TITR;0,54;wt%;TITR;;;;;;;;;;90;ppm;Unknown;46;ppm;Unknown;69;ppm;Unknown;;;;98;ppm;Unknown;;;;;;;;;;;;;;;;;;;;;;;;;;;;;;;;;;;;;;;;;;;;;;;;;;;;;;;;;;;;;;;;;;;;;;;;;;;;;;;;;;;;;;;;;;;;;;;;;;;;;;;;;;;;;;;;;;;;;;;;;;;;;;;;;;5,4;ppm;INAA;12;ppm;INAA;;;;6,7;ppm;INAA;2,07;ppm;INAA;0,73;ppm;INAA;;;;0,47;ppm;INAA;;;;;;;;;;;;;1,8;ppm;INAA;0,37;ppm;INAA;0,07;ppm;TITR;;;;;;;;;;;;;;;;;;;;;;;;;;;;;;;;;;;;;117;ppm;Unknown;;;;;;;;;;;;;46;ppm;Unknown;238;ppm;Unknown;0,9;ppm;INAA;69;ppm;Unknown;;;;;;;1,5;ppm;INAA;;;;;;;;;;;;;;;;;;;;;;4,7;ppm;ICP;90;ppm;Unknown;;;;;;;;;;0,7;ppm;Unknown;3;ppm;Unknown;14;ppm;Unknown;;;;;;;;;;;;;;;;42;ppm;INAA;;;;158;ppm;Unknown;;;;1;ppm;INAA;;;;;;;0,27;ppm;INAA;;;;;;;23;ppm;Unknown;98;ppm;Unknown;67;ppm;Unknown;;;;;;;;;;;;;;;;;;;;;;;;;;;;;;;;;;0,28;wt%;TITR;0,54;wt%;TITR;0,28;wt%;TITR;0,54;wt%;TITR;;;
GROSCAMP-W-217710;;GROSSMAN-CAMP;GROSSMAN, 1991;38,6717;-77,6056;0,001;;;CONTINENTAL_RIFT;;;;"AAS; COL; ICP; INAA; TITR; Unknown";WHOLE ROCK;IGNEOUS:VOLCANIC:MAFIC;DIABASE;;50,6;wt%;COL;0,71;wt%;COL;15,3;wt%;COL;;;;3,1;wt%;Unknown;;;;7,3;wt%;TITR;;;;;;;0,18;wt%;AAS;7,9;wt%;AAS;11,5;wt%;Unknown;;;;2,16;wt%;Unknown;0,36;wt%;AAS;0,11;wt%;COL;;;;;;;;;;0,17;wt%;TITR;0,96;wt%;TITR;;;;;;;;;;93;ppm;Unknown;46;ppm;Unknown;64;ppm;Unknown;;;;85;ppm;Unknown;;;;;;;;;;;;;;;;;;;;;;;;;;;;;;;;;;;;;;;;;;;;;;;;;;;;;;;;;;;;;;;;;;;;;;;;;;;;;;;;;;;;;;;;;;;;;;;;;;;;;;;;;;;;;;;;;;;;;;;;;;;;;;;;;;5,5;ppm;INAA;12;ppm;INAA;;;;9,6;ppm;INAA;2,04;ppm;INAA;0,74;ppm;INAA;;;;0,5;ppm;INAA;;;;;;;;;;;;;1,8;ppm;INAA;0,35;ppm;INAA;0,08;ppm;TITR;;;;;;;;;;;;;;;;;;;;;;;;;;;;;;;;;;;;;84;ppm;Unknown;;;;;;;;;;;;;46;ppm;Unknown;266;ppm;Unknown;2;ppm;INAA;64;ppm;Unknown;;;;;;;1,3;ppm;INAA;;;;;;;;;;;;;;;;;;;;;;4,5;ppm;ICP;93;ppm;Unknown;;;;;;;;;;;;;1,2;ppm;Unknown;19;ppm;Unknown;;;;;;;;;;;;;;;;42;ppm;INAA;;;;158;ppm;Unknown;0,28;ppm;INAA;1;ppm;INAA;;;;;;;0,41;ppm;INAA;;;;;;;25;ppm;Unknown;85;ppm;Unknown;66;ppm;Unknown;;;;;;;;;;;;;;;;;;;;;;;;;;;;;;;;;;0,17;wt%;TITR;0,96;wt%;TITR;0,17;wt%;TITR;0,96;wt%;TITR;;;
GROSCAMP-W-217711;;GROSSMAN-CAMP;GROSSMAN, 1991;38,6717;-77,6056;0,001;;;CONTINENTAL_RIFT;;;;"AAS; COL; ICP; INAA; TITR; Unknown";WHOLE ROCK;IGNEOUS:VOLCANIC:MAFIC;DIABASE;;50;wt%;COL;0,72;wt%;COL;15,5;wt%;COL;;;;3;wt%;Unknown;;;;7,5;wt%;TITR;;;;;;;0,2;wt%;AAS;8;wt%;AAS;11,1;wt%;Unknown;;;;2,02;wt%;Unknown;0,41;wt%;AAS;0,11;wt%;COL;;;;;;;;;;0,44;wt%;TITR;1,3;wt%;TITR;;;;;;;;;;99;ppm;Unknown;47;ppm;Unknown;69;ppm;Unknown;;;;88;ppm;Unknown;;;;;;;;;;;;;;;;;;;;;;;;;;;;;;;;;;;;;;;;;;;;;;;;;;;;;;;;;;;;;;;;;;;;;;;;;;;;;;;;;;;;;;;;;;;;;;;;;;;;;;;;;;;;;;;;;;;;;;;;;;;;;;;;;;5,2;ppm;INAA;11;ppm;INAA;;;;6,5;ppm;INAA;2,05;ppm;INAA;0,73;ppm;INAA;;;;0,47;ppm;INAA;;;;;;;;;;;;;1,9;ppm;INAA;0,32;ppm;INAA;0,07;ppm;TITR;;;;;;;;;;;;;;;;;;;;;;;;;;;;;;;;;;;;;72;ppm;Unknown;;;;;;;;;;;;;47;ppm;Unknown;260;ppm;Unknown;1,1;ppm;INAA;69;ppm;Unknown;;;;;;;1,2;ppm;INAA;;;;;;;;;;;;;;;;;;;;;;4,3;ppm;ICP;99;ppm;Unknown;;;;;;;;;;;;;;;;10;ppm;Unknown;;;;;;;;;;;;;;;;42;ppm;INAA;;;;131;ppm;Unknown;0,19;ppm;INAA;1;ppm;INAA;;;;;;;0,32;ppm;INAA;;;;;;;23;ppm;Unknown;88;ppm;Unknown;60;ppm;Unknown;;;;;;;;;;;;;;;;;;;;;;;;;;;;;;;;;;0,44;wt%;TITR;1,3;wt%;TITR;0,44;wt%;TITR;1,3;wt%;TITR;;;
GROSCAMP-W-217712;;GROSSMAN-CAMP;GROSSMAN, 1991;38,7681;-77,5236;0,001;;;CONTINENTAL_RIFT;;;;"AAS; COL; ICP; INAA; TITR; Unknown";WHOLE ROCK;IGNEOUS:VOLCANIC:MAFIC;DIABASE;;50,6;wt%;COL;3,1;wt%;COL;11,5;wt%;COL;;;;5,1;wt%;Unknown;;;;11,9;wt%;TITR;;;;;;;0,24;wt%;AAS;3,9;wt%;AAS;8,4;wt%;Unknown;;;;2,29;wt%;Unknown;1,1;wt%;AAS;0,3;wt%;COL;;;;;;;;;;0,38;wt%;TITR;1;wt%;TITR;;;;;;;;;;56;ppm;Unknown;54;ppm;Unknown;170;ppm;Unknown;;;;131;ppm;Unknown;;;;;;;;;;;;;;;;;;;;;;;;;;;;;;;;;;;;;;;;;;;;;;;;;;;;;;;;;;;;;;;;;;;;;;;;;;;;;;;;;;;;;;;;;;;;;;;;;;;;;;;;;;;;;;;;;;;;;;;;;;;;;;;;;;20,2;ppm;INAA;43;ppm;INAA;;;;23;ppm;INAA;6,5;ppm;INAA;1,57;ppm;INAA;;;;1,03;ppm;INAA;;;;;;;;;;;;;3,2;ppm;INAA;0,62;ppm;INAA;0,1;ppm;TITR;;;;;;;;;;;;;;;;;;;;;;;;;;;;;;;;;;;;;262;ppm;Unknown;;;;;;;;;;;;;54;ppm;Unknown;3,3;ppm;Unknown;1,4;ppm;INAA;170;ppm;Unknown;;;;;;;4,6;ppm;INAA;;;;;;;;;;;;;;;;;;;;;;19;ppm;ICP;56;ppm;Unknown;;;;;;;;;;9,2;ppm;Unknown;1;ppm;Unknown;32;ppm;Unknown;;;;;;;;;;;;;;;;41;ppm;INAA;;;;171;ppm;Unknown;1,11;ppm;INAA;3,9;ppm;INAA;;;;;;;0,91;ppm;INAA;;;;;;;38;ppm;Unknown;131;ppm;Unknown;173;ppm;Unknown;;;;;;;;;;;;;;;;;;;;;;;;;;;;;;;;;;0,38;wt%;TITR;1;wt%;TITR;0,38;wt%;TITR;1;wt%;TITR;;;
GROSCAMP-W-217713;;GROSSMAN-CAMP;GROSSMAN, 1991;38,7681;-77,5236;0,001;;;CONTINENTAL_RIFT;;;;"AAS; COL; ICP; INAA; TITR; Unknown";WHOLE ROCK;IGNEOUS:VOLCANIC:MAFIC;DIABASE;;53;wt%;COL;1,5;wt%;COL;15,4;wt%;COL;;;;2,5;wt%;Unknown;;;;9,6;wt%;TITR;;;;;;;0,19;wt%;AAS;3,8;wt%;AAS;8,9;wt%;Unknown;;;;2,83;wt%;Unknown;1,1;wt%;AAS;0,22;wt%;COL;;;;;;;;;;0,23;wt%;TITR;0,73;wt%;TITR;;;;;;;;;;49;ppm;Unknown;43;ppm;Unknown;170;ppm;Unknown;;;;122;ppm;Unknown;;;;;;;;;;;;;;;;;;;;;;;;;;;;;;;;;;;;;;;;;;;;;;;;;;;;;;;;;;;;;;;;;;;;;;;;;;;;;;;;;;;;;;;;;;;;;;;;;;;;;;;;;;;;;;;;;;;;;;;;;;;;;;;;;;15,9;ppm;INAA;34;ppm;INAA;;;;18;ppm;INAA;4,8;ppm;INAA;1,49;ppm;INAA;;;;0,83;ppm;INAA;;;;;;;;;;;;;2,63;ppm;INAA;0,44;ppm;INAA;0,07;ppm;TITR;;;;;;;;;;;;;;;;;;;;;;;;;;;;;;;;;;;;;235;ppm;Unknown;;;;;;;;;;;;;43;ppm;Unknown;7,8;ppm;Unknown;1,4;ppm;INAA;170;ppm;Unknown;;;;;;;3,6;ppm;INAA;;;;;;;;;;;;;;;;;;;;;;13;ppm;ICP;49;ppm;Unknown;;;;;;;;;;9,2;ppm;Unknown;2,8;ppm;Unknown;39;ppm;Unknown;;;;0,7;ppm;Unknown;;;;;;;0,4;ppm;INAA;33;ppm;INAA;;;;248;ppm;Unknown;0,74;ppm;INAA;3,5;ppm;INAA;;;;;;;0,79;ppm;INAA;;;;;;;27;ppm;Unknown;122;ppm;Unknown;129;ppm;Unknown;;;;;;;;;;;;;;;;;;;;;;;;;;;;;;;;;;0,23;wt%;TITR;0,73;wt%;TITR;0,23;wt%;TITR;0,73;wt%;TITR;;;