SAMPLE ID;IGSN;EXPEDITION ID;REFERENCES;LATITUDE;LONGITUDE;LOC PREC;MIN ELEVATION;MAX ELEVATION;TECTONIC SETTING;MIN AGE;AGE;MAX AGE;METHOD;ANALYZED MATERIAL;ROCK TYPE;ROCK NAME;MINERAL;SIO2;SIO2 Units;SIO2 Method;TIO2;TIO2 Units;TIO2 Method;AL2O3;AL2O3 Units;AL2O3 Method;CR2O3;CR2O3 Units;CR2O3 Method;FE2O3;FE2O3 Units;FE2O3 Method;FE2O3T;FE2O3T Units;FE2O3T Method;FEO;FEO Units;FEO Method;FEOT;FEOT Units;FEOT Method;NIO;NIO Units;NIO Method;MNO;MNO Units;MNO Method;MGO;MGO Units;MGO Method;CAO;CAO Units;CAO Method;SRO;SRO Units;SRO Method;NA2O;NA2O Units;NA2O Method;K2O;K2O Units;K2O Method;P2O5;P2O5 Units;P2O5 Method;BAO;BAO Units;BAO Method;LOI;LOI Units;LOI Method;H2O;H2O Units;H2O Method;H2O_M;H2O_M Units;H2O_M Method;H2O_P;H2O_P Units;H2O_P Method;SO3;SO3 Units;SO3 Method;COO;COO Units;COO Method;MN;MN Units;MN Method;NI;NI Units;NI Method;CO;CO Units;CO Method;CU;CU Units;CU Method;CD;CD Units;CD Method;ZN;ZN Units;ZN Method;AS;AS Units;AS Method;AG;AG Units;AG Method;S;S Units;S Method;ZRO2;ZRO2 Units;ZRO2 Method;AL;AL Units;AL Method;CA;CA Units;CA Method;SR87_SR86;SR87_SR86 Units;SR87_SR86 Method;SR87_SR86_INI;SR87_SR86_INI Units;SR87_SR86_INI Method;RB87_SR86;RB87_SR86 Units;RB87_SR86 Method;ND143_ND144;ND143_ND144 Units;ND143_ND144 Method;ND143_ND144_INI;ND143_ND144_INI Units;ND143_ND144_INI Method;SM147_ND144;SM147_ND144 Units;SM147_ND144 Method;E_ND;E_ND Units;E_ND Method;E_ND_INI;E_ND_INI Units;E_ND_INI Method;PB204_PB206;PB204_PB206 Units;PB204_PB206 Method;PB206_PB204;PB206_PB204 Units;PB206_PB204 Method;PB206_PB204_INI;PB206_PB204_INI Units;PB206_PB204_INI Method;PB207_PB204;PB207_PB204 Units;PB207_PB204 Method;PB207_PB204_INI;PB207_PB204_INI Units;PB207_PB204_INI Method;PB207_PB206;PB207_PB206 Units;PB207_PB206 Method;PB208_PB204;PB208_PB204 Units;PB208_PB204 Method;PB208_PB204_INI;PB208_PB204_INI Units;PB208_PB204_INI Method;PB208_PB206;PB208_PB206 Units;PB208_PB206 Method;HF176_HF177;HF176_HF177 Units;HF176_HF177 Method;RE187_OS188;RE187_OS188 Units;RE187_OS188 Method;OS187_OS188;OS187_OS188 Units;OS187_OS188 Method;OS187_OS188_INI;OS187_OS188_INI Units;OS187_OS188_INI Method;G_OS;G_OS Units;G_OS Method;G_OS_INI;G_OS_INI Units;G_OS_INI Method;ND143_ND144_INI;ND143_ND144_INI Units;ND143_ND144_INI Method;PB206_PB204_INI;PB206_PB204_INI Units;PB206_PB204_INI Method;PB207_PB204_INI;PB207_PB204_INI Units;PB207_PB204_INI Method;PB208_PB204_INI;PB208_PB204_INI Units;PB208_PB204_INI Method;SR87_SR86_INI;SR87_SR86_INI Units;SR87_SR86_INI Method;HE;HE Units;HE Method;HE3;HE3 Units;HE3 Method;HE3_HE4_R_RA;HE3_HE4_R_RA Units;HE3_HE4_R_RA Method;AR36;AR36 Units;AR36 Method;AR40;AR40 Units;AR40 Method;AR40_AR36;AR40_AR36 Units;AR40_AR36 Method;NE20;NE20 Units;NE20 Method;NE20_NE22;NE20_NE22 Units;NE20_NE22 Method;NE21_NE22;NE21_NE22 Units;NE21_NE22 Method;LA;LA Units;LA Method;CE;CE Units;CE Method;PR;PR Units;PR Method;ND;ND Units;ND Method;SM;SM Units;SM Method;EU;EU Units;EU Method;GD;GD Units;GD Method;TB;TB Units;TB Method;DY;DY Units;DY Method;HO;HO Units;HO Method;ER;ER Units;ER Method;TM;TM Units;TM Method;YB;YB Units;YB Method;LU;LU Units;LU Method;CO2;CO2 Units;CO2 Method;F;F Units;F Method;CL;CL Units;CL Method;U238_PB204;U238_PB204 Units;U238_PB204 Method;TH230_TH232;TH230_TH232 Units;TH230_TH232 Method;RA226_ACTIVITY;RA226_ACTIVITY Units;RA226_ACTIVITY Method;PB210_RA226;PB210_RA226 Units;PB210_RA226 Method;PB210_ACTIVITY;PB210_ACTIVITY Units;PB210_ACTIVITY Method;AG;AG Units;AG Method;AL;AL Units;AL Method;AS;AS Units;AS Method;AU;AU Units;AU Method;B;B Units;B Method;BA;BA Units;BA Method;BE;BE Units;BE Method;BI;BI Units;BI Method;CA;CA Units;CA Method;CD;CD Units;CD Method;CO;CO Units;CO Method;CR;CR Units;CR Method;CS;CS Units;CS Method;CU;CU Units;CU Method;GA;GA Units;GA Method;GER;GER Units;GER Method;HF;HF Units;HF Method;INDIUM;INDIUM Units;INDIUM Method;IR;IR Units;IR Method;K;K Units;K Method;LI;LI Units;LI Method;MN;MN Units;MN Method;MO;MO Units;MO Method;NA;NA Units;NA Method;NB;NB Units;NB Method;NI;NI Units;NI Method;OS;OS Units;OS Method;P;P Units;P Method;PB;PB Units;PB Method;PD;PD Units;PD Method;PT;PT Units;PT Method;RB;RB Units;RB Method;RE;RE Units;RE Method;RH;RH Units;RH Method;RU;RU Units;RU Method;S;S Units;S Method;SB;SB Units;SB Method;SC;SC Units;SC Method;SN;SN Units;SN Method;SR;SR Units;SR Method;TA;TA Units;TA Method;TH;TH Units;TH Method;TI;TI Units;TI Method;TL;TL Units;TL Method;U;U Units;U Method;V;V Units;V Method;W;W Units;W Method;Y;Y Units;Y Method;ZN;ZN Units;ZN Method;ZR;ZR Units;ZR Method;DELTA_O18;DELTA_O18 Units;DELTA_O18 Method;DELTA_C13;DELTA_C13 Units;DELTA_C13 Method;DELTA_MO98;DELTA_MO98 Units;DELTA_MO98 Method;DELTA_ZN66;DELTA_ZN66 Units;DELTA_ZN66 Method;DELTA_ZN68;DELTA_ZN68 Units;DELTA_ZN68 Method;OS188;OS188 Units;OS188 Method;FE3P_FET;FE3P_FET Units;FE3P_FET Method;TI;TI Units;TI Method;AS;AS Units;AS Method;AS;AS Units;AS Method;GER;GER Units;GER Method;H2O_M;H2O_M Units;H2O_M Method;H2O_P;H2O_P Units;H2O_P Method;H2O_M;H2O_M Units;H2O_M Method;H2O_P;H2O_P Units;H2O_P Method;INDIUM;INDIUM Units;INDIUM Method
GROSCAMP-W-243106;;GROSSMAN-CAMP;GROSSMAN, 1991;40,4;-74,9;0,001;;;CONTINENTAL_RIFT;;;;"ICP; INAA; Unknown";WHOLE ROCK;IGNEOUS:VOLCANIC:MAFIC;DIABASE;;;;;;;;;;;;;;;;;12,03;wt%;Unknown;;;;;;;;;;;;;;;;10,07;wt%;Unknown;;;;2,2;wt%;Unknown;;;;;;;;;;;;;;;;;;;;;;;;;;;;;;;91;ppm;Unknown;63;ppm;Unknown;111;ppm;Unknown;;;;81;ppm;Unknown;1;ppm;INAA;;;;0,03;ppm;INAA;;;;;;;;;;;;;;;;;;;;;;;;;;;;;;;;;;;;;;;;;;;;;;;;;;;;;;;;;;;;;;;;;;;;;;;;;;;;;;;;;;;;;;;;;;;;;;;;;;;;;;;;;;;;;;;;;;;;;;;;;10,9;ppm;INAA;23;ppm;INAA;;;;13;ppm;INAA;3,4;ppm;INAA;1,09;ppm;INAA;;;;0,7;ppm;INAA;;;;;;;;;;;;;2,2;ppm;INAA;0,29;ppm;INAA;;;;0,02;ppm;INAA;0,17;ppm;INAA;;;;;;;;;;;;;;;;;;;;;;1;ppm;INAA;;;;;;;164;ppm;Unknown;;;;;;;;;;;;;63;ppm;Unknown;310;ppm;Unknown;1,1;ppm;INAA;111;ppm;Unknown;;;;;;;2,6;ppm;INAA;;;;;;;;;;;;;;;;;;;;;;12;ppm;ICP;91;ppm;Unknown;;;;;;;;;;1,8;ppm;Unknown;3,7;ppm;Unknown;29;ppm;Unknown;;;;;;;;;;0,03;ppm;INAA;0,15;ppm;INAA;37;ppm;INAA;;;;189;ppm;Unknown;;;;2,2;ppm;INAA;;;;;;;;;;;;;;;;27;ppm;Unknown;81;ppm;Unknown;108;ppm;Unknown;;;;;;;;;;;;;;;;;;;;;;;;;1;ppm;INAA;1;ppm;INAA;;;;;;;;;;;;;;;;;;
GROSCAMP-W-243107;;GROSSMAN-CAMP;GROSSMAN, 1991;40,4;-74,9;0,001;;;CONTINENTAL_RIFT;;;;"ICP; INAA; Unknown";WHOLE ROCK;IGNEOUS:VOLCANIC:MAFIC;DIABASE;;;;;;;;;;;;;;;;;13,47;wt%;Unknown;;;;;;;;;;;;;;;;11,05;wt%;Unknown;;;;1,82;wt%;Unknown;;;;;;;;;;;;;;;;;;;;;;;;;;;;;;;88;ppm;Unknown;60;ppm;Unknown;129;ppm;Unknown;;;;88;ppm;Unknown;;;;;;;0,06;ppm;INAA;;;;;;;;;;;;;;;;;;;;;;;;;;;;;;;;;;;;;;;;;;;;;;;;;;;;;;;;;;;;;;;;;;;;;;;;;;;;;;;;;;;;;;;;;;;;;;;;;;;;;;;;;;;;;;;;;;;;;;;;;10,9;ppm;INAA;23,3;ppm;INAA;;;;12;ppm;INAA;3,5;ppm;INAA;0,96;ppm;INAA;;;;0,67;ppm;INAA;;;;;;;;;;;;;2,4;ppm;INAA;0,31;ppm;INAA;;;;0,02;ppm;INAA;0,1;ppm;INAA;;;;;;;;;;;;;;;;;;;;;;;;;;;;;;;164;ppm;Unknown;;;;;;;;;;;;;60;ppm;Unknown;137;ppm;Unknown;1,2;ppm;INAA;129;ppm;Unknown;;;;;;;2,41;ppm;INAA;;;;;;;;;;;;;;;;;;;;;;8,8;ppm;ICP;88;ppm;Unknown;;;;;;;;;;1,5;ppm;Unknown;3,2;ppm;Unknown;22;ppm;Unknown;;;;;;;;;;0,06;ppm;INAA;0,23;ppm;INAA;44;ppm;INAA;;;;159;ppm;Unknown;;;;2,4;ppm;INAA;;;;;;;0,46;ppm;INAA;;;;;;;28;ppm;Unknown;88;ppm;Unknown;93;ppm;Unknown;;;;;;;;;;;;;;;;;;;;;;;;;;;;;;;;;;;;;;;;;;;;;;;;
GROSCAMP-W-243108;;GROSSMAN-CAMP;GROSSMAN, 1991;40,4;-74,9;0,001;;;CONTINENTAL_RIFT;;;;"ICP; INAA; Unknown";WHOLE ROCK;IGNEOUS:VOLCANIC:MAFIC;DIABASE;;;;;;;;;;;;;;;;;11,65;wt%;Unknown;;;;;;;;;;;;;;;;11,75;wt%;Unknown;;;;1,75;wt%;Unknown;;;;;;;;;;;;;;;;;;;;;;;;;;;;;;;140;ppm;Unknown;63;ppm;Unknown;97;ppm;Unknown;;;;65;ppm;Unknown;;;;;;;0,02;ppm;INAA;;;;;;;;;;;;;;;;;;;;;;;;;;;;;;;;;;;;;;;;;;;;;;;;;;;;;;;;;;;;;;;;;;;;;;;;;;;;;;;;;;;;;;;;;;;;;;;;;;;;;;;;;;;;;;;;;;;;;;;;;8,7;ppm;INAA;19;ppm;INAA;;;;11;ppm;INAA;2,8;ppm;INAA;0,93;ppm;INAA;;;;0,54;ppm;INAA;;;;;;;;;;;;;1,9;ppm;INAA;0,25;ppm;INAA;;;;0,02;ppm;INAA;0,01;ppm;INAA;;;;;;;;;;;;;;;;;;;;;;;;;;;;;;;118;ppm;Unknown;;;;;;;;;;;;;63;ppm;Unknown;930;ppm;Unknown;0,68;ppm;INAA;97;ppm;Unknown;;;;;;;2,1;ppm;INAA;;;;;;;;;;;;;;;;;;;;;;8,9;ppm;ICP;140;ppm;Unknown;;;;;;;;;;2,1;ppm;Unknown;3,5;ppm;Unknown;25;ppm;Unknown;;;;;;;;;;0,02;ppm;INAA;;;;42;ppm;INAA;;;;153;ppm;Unknown;;;;1,7;ppm;INAA;;;;;;;0,49;ppm;INAA;;;;;;;25;ppm;Unknown;65;ppm;Unknown;86;ppm;Unknown;;;;;;;;;;;;;;;;;;;;;;;;;;;;;;;;;;;;;;;;;;;;;;;;
GROSCAMP-W-243109;;GROSSMAN-CAMP;GROSSMAN, 1991;40,4;-74,9;0,001;;;CONTINENTAL_RIFT;;;;"ICP; INAA; Unknown";WHOLE ROCK;IGNEOUS:VOLCANIC:MAFIC;DIABASE;;;;;;;;;;;;;;;;;11,67;wt%;Unknown;;;;;;;;;;;;;;;;10,91;wt%;Unknown;;;;2,01;wt%;Unknown;;;;;;;;;;;;;;;;;;;;;;;;;;;;;;;97;ppm;Unknown;55;ppm;Unknown;105;ppm;Unknown;;;;85;ppm;Unknown;1,1;ppm;INAA;;;;0,04;ppm;INAA;;;;;;;;;;;;;;;;;;;;;;;;;;;;;;;;;;;;;;;;;;;;;;;;;;;;;;;;;;;;;;;;;;;;;;;;;;;;;;;;;;;;;;;;;;;;;;;;;;;;;;;;;;;;;;;;;;;;;;;;;9,8;ppm;INAA;21,3;ppm;INAA;;;;12;ppm;INAA;3,2;ppm;INAA;1,1;ppm;INAA;;;;0,64;ppm;INAA;;;;;;;;;;;;;2,1;ppm;INAA;0,28;ppm;INAA;;;;0,02;ppm;INAA;0,04;ppm;INAA;;;;;;;;;;;;;;;;;;;;;;1,1;ppm;INAA;;;;;;;153;ppm;Unknown;;;;;;;;;;;;;55;ppm;Unknown;400;ppm;Unknown;1,4;ppm;INAA;105;ppm;Unknown;;;;;;;2,24;ppm;INAA;;;;;;;;;;;;;;;;;;;;;;9,5;ppm;ICP;97;ppm;Unknown;;;;;;;;;;0,9;ppm;Unknown;1,4;ppm;Unknown;25;ppm;Unknown;;;;;;;;;;0,04;ppm;INAA;0,15;ppm;INAA;38;ppm;INAA;;;;202;ppm;Unknown;;;;1,9;ppm;INAA;;;;;;;0,61;ppm;INAA;;;;;;;22;ppm;Unknown;85;ppm;Unknown;98;ppm;Unknown;;;;;;;;;;;;;;;;;;;;;;;;;1,1;ppm;INAA;1,1;ppm;INAA;;;;;;;;;;;;;;;;;;
GROSCAMP-W-243110;;GROSSMAN-CAMP;GROSSMAN, 1991;40,4;-74,9;0,001;;;CONTINENTAL_RIFT;;;;"ICP; INAA; Unknown";WHOLE ROCK;IGNEOUS:PLUTONIC:MAFIC;GABBRO;;;;;;;;;;;;;;;;;13,4;wt%;Unknown;;;;;;;;;;;;;;;;7,97;wt%;Unknown;;;;3,49;wt%;Unknown;;;;;;;;;;;;;;;;;;;;;;;;;;;;;;;39;ppm;Unknown;53;ppm;Unknown;20;ppm;Unknown;;;;86;ppm;Unknown;;;;;;;0,02;ppm;INAA;;;;;;;;;;;;;;;;;;;;;;;;;;;;;;;;;;;;;;;;;;;;;;;;;;;;;;;;;;;;;;;;;;;;;;;;;;;;;;;;;;;;;;;;;;;;;;;;;;;;;;;;;;;;;;;;;;;;;;;;;11,8;ppm;INAA;25;ppm;INAA;;;;13;ppm;INAA;3,7;ppm;INAA;1,29;ppm;INAA;;;;0,68;ppm;INAA;;;;;;;;;;;;;2,31;ppm;INAA;0,33;ppm;INAA;;;;0,03;ppm;INAA;0,11;ppm;INAA;;;;;;;;;;;;;;;;;;;;;;;;;;;;;;;188;ppm;Unknown;;;;;;;;;;;;;53;ppm;Unknown;9;ppm;Unknown;;;;20;ppm;Unknown;;;;;;;2,1;ppm;INAA;;;;;;;;;;;;;;;;;;;;;;9,6;ppm;ICP;39;ppm;Unknown;;;;;;;;;;1,9;ppm;Unknown;2,1;ppm;Unknown;50;ppm;Unknown;;;;;;;;;;0,02;ppm;INAA;0,32;ppm;INAA;36;ppm;INAA;;;;232;ppm;Unknown;2,33;ppm;INAA;1,8;ppm;INAA;;;;;;;;;;;;;;;;28;ppm;Unknown;86;ppm;Unknown;95;ppm;Unknown;;;;;;;;;;;;;;;;;;;;;;;;;;;;;;;;;;;;;;;;;;;;;;;;
GROSCAMP-W-243111;;GROSSMAN-CAMP;GROSSMAN, 1991;40,4;-74,9;0,001;;;CONTINENTAL_RIFT;;;;"ICP; INAA; Unknown";WHOLE ROCK;IGNEOUS:PLUTONIC:MAFIC;GABBRO;;;;;;;;;;;;;;;;;11,18;wt%;Unknown;;;;;;;;;;;;;;;;7,97;wt%;Unknown;;;;2,79;wt%;Unknown;;;;;;;;;;;;;;;;;;;;;;;;;;;;;;;51;ppm;Unknown;83;ppm;Unknown;130;ppm;Unknown;;;;135;ppm;Unknown;;;;;;;0,05;ppm;INAA;;;;;;;;;;;;;;;;;;;;;;;;;;;;;;;;;;;;;;;;;;;;;;;;;;;;;;;;;;;;;;;;;;;;;;;;;;;;;;;;;;;;;;;;;;;;;;;;;;;;;;;;;;;;;;;;;;;;;;;;;13;ppm;INAA;27;ppm;INAA;;;;15;ppm;INAA;4,1;ppm;INAA;1,2;ppm;INAA;;;;0,7;ppm;INAA;;;;;;;;;;;;;2,4;ppm;INAA;0,33;ppm;INAA;;;;0,03;ppm;INAA;0,02;ppm;INAA;;;;;;;;;;;;;;;;;;;;;;;;;;;;;;;144;ppm;Unknown;;;;;;;;;;;;;83;ppm;Unknown;46;ppm;Unknown;1;ppm;INAA;130;ppm;Unknown;;;;;;;3,1;ppm;INAA;;;;;;;;;;;;;;;;;;;;;;18;ppm;ICP;51;ppm;Unknown;;;;;;;;;;0,6;ppm;Unknown;;;;33;ppm;Unknown;;;;;;;;;;0,05;ppm;INAA;;;;32;ppm;INAA;;;;215;ppm;Unknown;9,7;ppm;INAA;2,8;ppm;INAA;;;;;;;1,6;ppm;INAA;;;;;;;27;ppm;Unknown;135;ppm;Unknown;105;ppm;Unknown;;;;;;;;;;;;;;;;;;;;;;;;;;;;;;;;;;;;;;;;;;;;;;;;
GROSCAMP-W-243112;;GROSSMAN-CAMP;GROSSMAN, 1991;40,4;-74,9;0,001;;;CONTINENTAL_RIFT;;;;"ICP; INAA; Unknown";WHOLE ROCK;IGNEOUS:VOLCANIC:MAFIC;DIABASE;;;;;;;;;;;;;;;;;10,93;wt%;Unknown;;;;;;;;;;;;;;;;7,41;wt%;Unknown;;;;3,26;wt%;Unknown;;;;;;;;;;;;;;;;;;;;;;;;;;;;;;;51;ppm;Unknown;45;ppm;Unknown;131;ppm;Unknown;;;;69;ppm;Unknown;4,2;ppm;INAA;;;;0,04;ppm;INAA;;;;;;;;;;;;;;;;;;;;;;;;;;;;;;;;;;;;;;;;;;;;;;;;;;;;;;;;;;;;;;;;;;;;;;;;;;;;;;;;;;;;;;;;;;;;;;;;;;;;;;;;;;;;;;;;;;;;;;;;;11,4;ppm;INAA;23,7;ppm;INAA;;;;13;ppm;INAA;3,5;ppm;INAA;1,1;ppm;INAA;;;;0,63;ppm;INAA;;;;;;;;;;;;;2,18;ppm;INAA;0,3;ppm;INAA;;;;0,03;ppm;INAA;0,05;ppm;INAA;;;;;;;;;;;;;;;;;;;;;;4,2;ppm;INAA;7;ppm;INAA;;;;272;ppm;Unknown;;;;;;;;;;;;;45;ppm;Unknown;20;ppm;Unknown;1,2;ppm;INAA;131;ppm;Unknown;;;;;;;2,51;ppm;INAA;;;;;;;;;;;;;;;;;;;;;;9,3;ppm;ICP;51;ppm;Unknown;;;;;;;;;;1,7;ppm;Unknown;1,7;ppm;Unknown;114;ppm;Unknown;;;;;;;;;;0,04;ppm;INAA;0,41;ppm;INAA;30;ppm;INAA;;;;340;ppm;Unknown;2;ppm;INAA;2,3;ppm;INAA;;;;;;;0,55;ppm;INAA;;;;;;;32;ppm;Unknown;69;ppm;Unknown;109;ppm;Unknown;;;;;;;;;;;;;;;;;;;;;;;;;4,2;ppm;INAA;4,2;ppm;INAA;;;;;;;;;;;;;;;;;;
GROSCAMP-W-243113;;GROSSMAN-CAMP;GROSSMAN, 1991;40,4;-75;0,001;;;CONTINENTAL_RIFT;;;;"ICP; INAA; Unknown";WHOLE ROCK;IGNEOUS:VOLCANIC:MAFIC;DIABASE;;;;;;;;;;;;;;;;;10,9;wt%;Unknown;;;;;;;;;;;;;;;;10,07;wt%;Unknown;;;;2,43;wt%;Unknown;;;;;;;;;;;;;;;;;;;;;;;;;;;;;;;57;ppm;Unknown;47;ppm;Unknown;89;ppm;Unknown;;;;61;ppm;Unknown;;;;;;;0,03;ppm;INAA;;;;;;;;;;;;;;;;;;;;;;;;;;;;;;;;;;;;;;;;;;;;;;;;;;;;;;;;;;;;;;;;;;;;;;;;;;;;;;;;;;;;;;;;;;;;;;;;;;;;;;;;;;;;;;;;;;;;;;;;;9,4;ppm;INAA;19,7;ppm;INAA;;;;12;ppm;INAA;2,88;ppm;INAA;1,03;ppm;INAA;;;;0,62;ppm;INAA;;;;;;;;;;;;;1,9;ppm;INAA;0,26;ppm;INAA;;;;0,02;ppm;INAA;0,02;ppm;INAA;;;;;;;;;;;;;;;;;;;;;;;;;5,1;ppm;INAA;;;;167;ppm;Unknown;;;;;;;;;;;;;47;ppm;Unknown;20;ppm;Unknown;0,79;ppm;INAA;89;ppm;Unknown;;;;;;;2,17;ppm;INAA;;;;;;;;;;;;;;;;;;;;;;7,5;ppm;ICP;57;ppm;Unknown;;;;;;;;;;1,8;ppm;Unknown;2,8;ppm;Unknown;21;ppm;Unknown;;;;;;;;;;0,03;ppm;INAA;;;;36;ppm;INAA;;;;221;ppm;Unknown;2,4;ppm;INAA;2,1;ppm;INAA;;;;;;;0,45;ppm;INAA;;;;;;;22;ppm;Unknown;61;ppm;Unknown;92;ppm;Unknown;;;;;;;;;;;;;;;;;;;;;;;;;;;;;;;;;;;;;;;;;;;;;;;;
GROSCAMP-W-246943;;GROSSMAN-CAMP;GROSSMAN, 1991;38,526;-78,014;0,001;;;CONTINENTAL_RIFT;;;;Unknown;WHOLE ROCK;IGNEOUS:VOLCANIC:MAFIC;DIABASE;;;;;;;;;;;;;;;;;;;;;;;;;;;;;;;;;;;;;;;;;;;;;;;;;;;;;;;;;;;;;;;;;;;;;;;;;;24;ppm;Unknown;40;ppm;Unknown;210;ppm;Unknown;;;;;;;;;;;;;;;;;;;;;;;;;;;;;;;;;;;;;;;;;;;;;;;;;;;;;;;;;;;;;;;;;;;;;;;;;;;;;;;;;;;;;;;;;;;;;;;;;;;;;;;;;;;;;;;;;;;;;;;;;;;;;;;;;;;;;;;;;;;;;;;;;;;;;;;;;;;;;;;;;;;;;;;;;;;;;;;;;;;;;;;;;;;;;;;;;;;;;;;;;;;;;;;;;;;;;;;;;;;;;;;;;;;;;;;;40;ppm;Unknown;;;;;;;210;ppm;Unknown;;;;;;;;;;;;;;;;;;;;;;;;;;;;;;;;;;24;ppm;Unknown;;;;;;;;;;28;ppm;Unknown;7;ppm;Unknown;;;;;;;;;;;;;;;;;;;;;;;;;;;;;;;;;;;;;;;;;;;;;;;;;;;;;;;;;;;;;;;;;;;;;;;;;;;;;;;;;;;;;;;;;;;;;;;;;;;;;;;;;
GROSCAMP-W-243114;;GROSSMAN-CAMP;GROSSMAN, 1991;40;-74;0,001;;;CONTINENTAL_RIFT;;;;"ICP; INAA; Unknown";WHOLE ROCK;IGNEOUS:VOLCANIC:MAFIC;DIABASE;;;;;;;;;;;;;;;;;11,35;wt%;Unknown;;;;;;;;;;;;;;;;10,49;wt%;Unknown;;;;1,93;wt%;Unknown;;;;;;;;;;;;;;;;;;;;;;;;;;;;;;;88;ppm;Unknown;55;ppm;Unknown;105;ppm;Unknown;;;;89;ppm;Unknown;;;;;;;0,04;ppm;INAA;;;;;;;;;;;;;;;;;;;;;;;;;;;;;;;;;;;;;;;;;;;;;;;;;;;;;;;;;;;;;;;;;;;;;;;;;;;;;;;;;;;;;;;;;;;;;;;;;;;;;;;;;;;;;;;;;;;;;;;;;10,4;ppm;INAA;22;ppm;INAA;;;;12;ppm;INAA;3,4;ppm;INAA;1,06;ppm;INAA;;;;0,6;ppm;INAA;;;;;;;;;;;;;2,1;ppm;INAA;0,29;ppm;INAA;;;;0,02;ppm;INAA;0,01;ppm;INAA;;;;;;;;;;;;;;;;;;;;;;;;;;;;;;;149;ppm;Unknown;;;;;;;;;;;;;55;ppm;Unknown;340;ppm;Unknown;0,74;ppm;INAA;105;ppm;Unknown;;;;;;;2,5;ppm;INAA;;;;;;;;;;;;;;;;;;;;;;7,9;ppm;ICP;88;ppm;Unknown;;;;;;;;;;2,4;ppm;Unknown;5,5;ppm;Unknown;29;ppm;Unknown;;;;;;;;;;0,04;ppm;INAA;0,14;ppm;INAA;36;ppm;INAA;;;;196;ppm;Unknown;2,16;ppm;INAA;2;ppm;INAA;;;;;;;0,51;ppm;INAA;;;;;;;26;ppm;Unknown;89;ppm;Unknown;106;ppm;Unknown;;;;;;;;;;;;;;;;;;;;;;;;;;;;;;;;;;;;;;;;;;;;;;;;
GROSCAMP-W-243115;;GROSSMAN-CAMP;GROSSMAN, 1991;40;-74;0,001;;;CONTINENTAL_RIFT;;;;"ICP; INAA; Unknown";WHOLE ROCK;IGNEOUS:VOLCANIC:MAFIC;DIABASE;;;;;;;;;;;;;;;;;11,23;wt%;Unknown;;;;;;;;;;;;;;;;7,97;wt%;Unknown;;;;2,05;wt%;Unknown;;;;;;;;;;;;;;;;;;;;;;;;;;;;;;;91;ppm;Unknown;52;ppm;Unknown;108;ppm;Unknown;;;;81;ppm;Unknown;;;;;;;0,03;ppm;INAA;;;;;;;;;;;;;;;;;;;;;;;;;;;;;;;;;;;;;;;;;;;;;;;;;;;;;;;;;;;;;;;;;;;;;;;;;;;;;;;;;;;;;;;;;;;;;;;;;;;;;;;;;;;;;;;;;;;;;;;;;10;ppm;INAA;21;ppm;INAA;;;;12;ppm;INAA;3,2;ppm;INAA;1,01;ppm;INAA;;;;0,63;ppm;INAA;;;;;;;;;;;;;2;ppm;INAA;0,28;ppm;INAA;;;;0,02;ppm;INAA;0;ppm;INAA;;;;;;;;;;;;;;;;;;;;;;;;;;;;;;;198;ppm;Unknown;;;;;;;;;;;;;52;ppm;Unknown;350;ppm;Unknown;0,4;ppm;INAA;108;ppm;Unknown;;;;;;;2,38;ppm;INAA;;;;;;;;;;;;;;;;;;;;;;7,5;ppm;ICP;91;ppm;Unknown;;;;;;;;;;3,1;ppm;Unknown;6,6;ppm;Unknown;63;ppm;Unknown;;;;;;;;;;0,03;ppm;INAA;;;;36;ppm;INAA;;;;208;ppm;Unknown;1,3;ppm;INAA;2;ppm;INAA;;;;;;;0,53;ppm;INAA;;;;;;;27;ppm;Unknown;81;ppm;Unknown;111;ppm;Unknown;;;;;;;;;;;;;;;;;;;;;;;;;;;;;;;;;;;;;;;;;;;;;;;;
GROSCAMP-W-243116;;GROSSMAN-CAMP;GROSSMAN, 1991;40;-74;0,001;;;CONTINENTAL_RIFT;;;;"ICP; INAA; Unknown";WHOLE ROCK;IGNEOUS:VOLCANIC:MAFIC;DIABASE;;;;;;;;;;;;;;;;;11,13;wt%;Unknown;;;;;;;;;;;;;;;;7,83;wt%;Unknown;;;;2,7;wt%;Unknown;;;;;;;;;;;;;;;;;;;;;;;;;;;;;;;91;ppm;Unknown;49;ppm;Unknown;101;ppm;Unknown;;;;81;ppm;Unknown;1,4;ppm;INAA;;;;0,03;ppm;INAA;;;;;;;;;;;;;;;;;;;;;;;;;;;;;;;;;;;;;;;;;;;;;;;;;;;;;;;;;;;;;;;;;;;;;;;;;;;;;;;;;;;;;;;;;;;;;;;;;;;;;;;;;;;;;;;;;;;;;;;;;9,8;ppm;INAA;21;ppm;INAA;;;;11;ppm;INAA;3,2;ppm;INAA;1,03;ppm;INAA;;;;0,62;ppm;INAA;;;;;;;;;;;;;2,1;ppm;INAA;0,27;ppm;INAA;;;;0,02;ppm;INAA;0,01;ppm;INAA;;;;;;;;;;;;;;;;;;;;;;1,4;ppm;INAA;;;;;;;197;ppm;Unknown;;;;;;;;;;;;;49;ppm;Unknown;370;ppm;Unknown;0,3;ppm;INAA;101;ppm;Unknown;;;;;;;2,27;ppm;INAA;;;;;;;;;;;;;;;;;;;;;;6,7;ppm;ICP;91;ppm;Unknown;;;;;;;;;;4,5;ppm;Unknown;6,8;ppm;Unknown;73;ppm;Unknown;;;;;;;;;;0,03;ppm;INAA;0,26;ppm;INAA;36;ppm;INAA;;;;202;ppm;Unknown;0,84;ppm;INAA;2,1;ppm;INAA;;;;;;;0,55;ppm;INAA;;;;;;;24;ppm;Unknown;81;ppm;Unknown;102;ppm;Unknown;;;;;;;;;;;;;;;;;;;;;;;;;1,4;ppm;INAA;1,4;ppm;INAA;;;;;;;;;;;;;;;;;;
GROSCAMP-W-243400;;GROSSMAN-CAMP;GROSSMAN, 1991;36,9833;-79,15;0,001;;;CONTINENTAL_RIFT;;;;"AAS; COL; ES; ICP; INAA; Unknown";WHOLE ROCK;IGNEOUS:VOLCANIC:MAFIC;DIABASE;;53,08;wt%;COL;1;wt%;COL;13,9;wt%;COL;;;;;;;13,2;wt%;Unknown;;;;;;;;;;0,21;wt%;AAS;6,29;wt%;AAS;9,83;wt%;Unknown;;;;2,42;wt%;Unknown;0,56;wt%;AAS;0,14;wt%;COL;;;;;;;;;;;;;;;;;;;;;;;;;49;ppm;Unknown;48;ppm;Unknown;64;ppm;Unknown;;;;79;ppm;Unknown;1,9;ppm;INAA;;;;0,06;ppm;INAA;;;;;;;;;;;;;;;;;;;;;;;;;;;;;;;;;;;;;;;;;;;;;;;;;;;;;;;;;;;;;;;;;;;;;;;;;;;;;;;;;;;;;;;;;;;;;;;;;;;;;;;;;;;;;;;;;;;;;;;;;9,5;ppm;INAA;19,9;ppm;INAA;;;;10;ppm;INAA;2,99;ppm;INAA;10;ppm;INAA;;;;0,69;ppm;INAA;;;;;;;;;;;;;2,92;ppm;INAA;0,44;ppm;INAA;;;;0,02;ppm;INAA;0,01;ppm;INAA;;;;;;;;;;;;;;;;;;;;;;1,9;ppm;INAA;;;;10;ppm;ES;139;ppm;Unknown;;;;;;;;;;;;;48;ppm;Unknown;85;ppm;Unknown;0,79;ppm;INAA;64;ppm;Unknown;;;;;;;2,22;ppm;INAA;;;;;;;;;;;;;;;;;;;;;;4,8;ppm;ICP;49;ppm;Unknown;;;;;;;;;;1,4;ppm;Unknown;2;ppm;Unknown;23;ppm;Unknown;;;;;;;;;;0,06;ppm;INAA;0,34;ppm;INAA;46;ppm;INAA;;;;153;ppm;Unknown;0,38;ppm;INAA;2,2;ppm;INAA;;;;;;;0,38;ppm;INAA;;;;;;;30;ppm;Unknown;79;ppm;Unknown;87;ppm;Unknown;;;;;;;;;;;;;;;;;;;;;;;;;1,9;ppm;INAA;1,9;ppm;INAA;;;;;;;;;;;;;;;;;;