SAMPLE ID;IGSN;EXPEDITION ID;REFERENCES;LATITUDE;LONGITUDE;LOC PREC;MIN ELEVATION;MAX ELEVATION;TECTONIC SETTING;MIN AGE;AGE;MAX AGE;METHOD;ANALYZED MATERIAL;ROCK TYPE;ROCK NAME;MINERAL;SIO2;SIO2 Units;SIO2 Method;TIO2;TIO2 Units;TIO2 Method;AL2O3;AL2O3 Units;AL2O3 Method;CR2O3;CR2O3 Units;CR2O3 Method;FE2O3;FE2O3 Units;FE2O3 Method;FE2O3T;FE2O3T Units;FE2O3T Method;FEO;FEO Units;FEO Method;FEOT;FEOT Units;FEOT Method;NIO;NIO Units;NIO Method;MNO;MNO Units;MNO Method;MGO;MGO Units;MGO Method;CAO;CAO Units;CAO Method;SRO;SRO Units;SRO Method;NA2O;NA2O Units;NA2O Method;K2O;K2O Units;K2O Method;P2O5;P2O5 Units;P2O5 Method;BAO;BAO Units;BAO Method;LOI;LOI Units;LOI Method;H2O;H2O Units;H2O Method;H2O_M;H2O_M Units;H2O_M Method;H2O_P;H2O_P Units;H2O_P Method;SO3;SO3 Units;SO3 Method;COO;COO Units;COO Method;MN;MN Units;MN Method;NI;NI Units;NI Method;CO;CO Units;CO Method;CU;CU Units;CU Method;CD;CD Units;CD Method;ZN;ZN Units;ZN Method;AS;AS Units;AS Method;AG;AG Units;AG Method;S;S Units;S Method;ZRO2;ZRO2 Units;ZRO2 Method;AL;AL Units;AL Method;CA;CA Units;CA Method;SR87_SR86;SR87_SR86 Units;SR87_SR86 Method;SR87_SR86_INI;SR87_SR86_INI Units;SR87_SR86_INI Method;RB87_SR86;RB87_SR86 Units;RB87_SR86 Method;ND143_ND144;ND143_ND144 Units;ND143_ND144 Method;ND143_ND144_INI;ND143_ND144_INI Units;ND143_ND144_INI Method;SM147_ND144;SM147_ND144 Units;SM147_ND144 Method;E_ND;E_ND Units;E_ND Method;E_ND_INI;E_ND_INI Units;E_ND_INI Method;PB204_PB206;PB204_PB206 Units;PB204_PB206 Method;PB206_PB204;PB206_PB204 Units;PB206_PB204 Method;PB206_PB204_INI;PB206_PB204_INI Units;PB206_PB204_INI Method;PB207_PB204;PB207_PB204 Units;PB207_PB204 Method;PB207_PB204_INI;PB207_PB204_INI Units;PB207_PB204_INI Method;PB207_PB206;PB207_PB206 Units;PB207_PB206 Method;PB208_PB204;PB208_PB204 Units;PB208_PB204 Method;PB208_PB204_INI;PB208_PB204_INI Units;PB208_PB204_INI Method;PB208_PB206;PB208_PB206 Units;PB208_PB206 Method;HF176_HF177;HF176_HF177 Units;HF176_HF177 Method;RE187_OS188;RE187_OS188 Units;RE187_OS188 Method;OS187_OS188;OS187_OS188 Units;OS187_OS188 Method;OS187_OS188_INI;OS187_OS188_INI Units;OS187_OS188_INI Method;G_OS;G_OS Units;G_OS Method;G_OS_INI;G_OS_INI Units;G_OS_INI Method;ND143_ND144_INI;ND143_ND144_INI Units;ND143_ND144_INI Method;PB206_PB204_INI;PB206_PB204_INI Units;PB206_PB204_INI Method;PB207_PB204_INI;PB207_PB204_INI Units;PB207_PB204_INI Method;PB208_PB204_INI;PB208_PB204_INI Units;PB208_PB204_INI Method;SR87_SR86_INI;SR87_SR86_INI Units;SR87_SR86_INI Method;HE;HE Units;HE Method;HE3;HE3 Units;HE3 Method;HE3_HE4_R_RA;HE3_HE4_R_RA Units;HE3_HE4_R_RA Method;AR36;AR36 Units;AR36 Method;AR40;AR40 Units;AR40 Method;AR40_AR36;AR40_AR36 Units;AR40_AR36 Method;NE20;NE20 Units;NE20 Method;NE20_NE22;NE20_NE22 Units;NE20_NE22 Method;NE21_NE22;NE21_NE22 Units;NE21_NE22 Method;LA;LA Units;LA Method;CE;CE Units;CE Method;PR;PR Units;PR Method;ND;ND Units;ND Method;SM;SM Units;SM Method;EU;EU Units;EU Method;GD;GD Units;GD Method;TB;TB Units;TB Method;DY;DY Units;DY Method;HO;HO Units;HO Method;ER;ER Units;ER Method;TM;TM Units;TM Method;YB;YB Units;YB Method;LU;LU Units;LU Method;CO2;CO2 Units;CO2 Method;F;F Units;F Method;CL;CL Units;CL Method;U238_PB204;U238_PB204 Units;U238_PB204 Method;TH230_TH232;TH230_TH232 Units;TH230_TH232 Method;RA226_ACTIVITY;RA226_ACTIVITY Units;RA226_ACTIVITY Method;PB210_RA226;PB210_RA226 Units;PB210_RA226 Method;PB210_ACTIVITY;PB210_ACTIVITY Units;PB210_ACTIVITY Method;AG;AG Units;AG Method;AL;AL Units;AL Method;AS;AS Units;AS Method;AU;AU Units;AU Method;B;B Units;B Method;BA;BA Units;BA Method;BE;BE Units;BE Method;BI;BI Units;BI Method;CA;CA Units;CA Method;CD;CD Units;CD Method;CO;CO Units;CO Method;CR;CR Units;CR Method;CS;CS Units;CS Method;CU;CU Units;CU Method;GA;GA Units;GA Method;GER;GER Units;GER Method;HF;HF Units;HF Method;INDIUM;INDIUM Units;INDIUM Method;IR;IR Units;IR Method;K;K Units;K Method;LI;LI Units;LI Method;MN;MN Units;MN Method;MO;MO Units;MO Method;NA;NA Units;NA Method;NB;NB Units;NB Method;NI;NI Units;NI Method;OS;OS Units;OS Method;P;P Units;P Method;PB;PB Units;PB Method;PD;PD Units;PD Method;PT;PT Units;PT Method;RB;RB Units;RB Method;RE;RE Units;RE Method;RH;RH Units;RH Method;RU;RU Units;RU Method;S;S Units;S Method;SB;SB Units;SB Method;SC;SC Units;SC Method;SN;SN Units;SN Method;SR;SR Units;SR Method;TA;TA Units;TA Method;TH;TH Units;TH Method;TI;TI Units;TI Method;TL;TL Units;TL Method;U;U Units;U Method;V;V Units;V Method;W;W Units;W Method;Y;Y Units;Y Method;ZN;ZN Units;ZN Method;ZR;ZR Units;ZR Method;DELTA_O18;DELTA_O18 Units;DELTA_O18 Method;DELTA_C13;DELTA_C13 Units;DELTA_C13 Method;DELTA_MO98;DELTA_MO98 Units;DELTA_MO98 Method;DELTA_ZN66;DELTA_ZN66 Units;DELTA_ZN66 Method;DELTA_ZN68;DELTA_ZN68 Units;DELTA_ZN68 Method;OS188;OS188 Units;OS188 Method;FE3P_FET;FE3P_FET Units;FE3P_FET Method;TI;TI Units;TI Method;AS;AS Units;AS Method;AS;AS Units;AS Method;GER;GER Units;GER Method;H2O_M;H2O_M Units;H2O_M Method;H2O_P;H2O_P Units;H2O_P Method;H2O_M;H2O_M Units;H2O_M Method;H2O_P;H2O_P Units;H2O_P Method;INDIUM;INDIUM Units;INDIUM Method
GOTT-CAMP-CC3-1024;;GOTTFRIED-CC;GOTTFRIED , 1983;33;-80,15;1;;;CONTINENTAL_RIFT;;;;"ENAA; ES; INAA; Unknown";WHOLE ROCK;IGNEOUS:VOLCANIC:MAFIC;BASALT;;52,5;wt%;Unknown;0,97;wt%;Unknown;14,1;wt%;Unknown;;;;3,7;wt%;Unknown;;;;7,9;wt%;Unknown;;;;;;;0,21;wt%;Unknown;6,3;wt%;Unknown;5,7;wt%;Unknown;;;;5,5;wt%;Unknown;0,05;wt%;Unknown;0,16;wt%;Unknown;;;;;;;;;;0,92;wt%;Unknown;2,4;wt%;Unknown;;;;;;;;;;42;ppm;INAA;46;ppm;INAA;79;ppm;INAA;;;;80;ppm;INAA;;;;;;;;;;;;;;;;41000;ppm;INAA;;;;;;;;;;;;;;;;;;;;;;;;;;;;;;;;;;;;;;;;;;;;;;;;;;;;;;;;;;;;;;;;;;;;;;;;;;;;;;;;;;;;;;;;;;;;;;;;;;;;;;;;;;;;;;;;9;ppm;ENAA;27;ppm;ENAA;;;;14;ppm;ENAA;3,3;ppm;ENAA;0,9;ppm;ENAA;;;;0,74;ppm;ENAA;;;;0,8;ppm;ENAA;;;;;;;2,8;ppm;ENAA;0,43;ppm;ENAA;0,13;wt%;Unknown;;;;;;;;;;;;;;;;;;;;;;;;;;;;;;;;;;;;;54;ppm;INAA;;;;;;;41000;ppm;INAA;;;;46;ppm;INAA;35;ppm;INAA;;;;79;ppm;INAA;14;ppm;INAA;;;;2,2;ppm;ENAA;;;;;;;400;ppm;INAA;22;ppm;INAA;;;;;;;;;;5,7;ppm;INAA;42;ppm;INAA;;;;;;;4,2;ppm;INAA;;;;;;;2;ppm;INAA;;;;;;;;;;;;;;;;40;ppm;INAA;;;;260;ppm;INAA;0,28;ppm;ENAA;1,8;ppm;ENAA;;;;;;;0,5;ppm;ENAA;290;ppm;INAA;;;;26;ppm;ES;80;ppm;INAA;84;ppm;INAA;;;;;;;;;;;;;;;;;;;;;;;;;;;;;;;;;;0,92;wt%;Unknown;2,4;wt%;Unknown;0,92;wt%;Unknown;2,4;wt%;Unknown;;;
GOTT-CAMP-CC3-1030;;GOTTFRIED-CC;GOTTFRIED , 1983;33;-80,15;1;;;CONTINENTAL_RIFT;;;;"ENAA; ES; INAA; Unknown";WHOLE ROCK;IGNEOUS:VOLCANIC:MAFIC;BASALT;;47,8;wt%;Unknown;0,99;wt%;Unknown;14,6;wt%;Unknown;;;;3,9;wt%;Unknown;;;;8;wt%;Unknown;;;;;;;0,22;wt%;Unknown;8,3;wt%;Unknown;6,9;wt%;Unknown;;;;3,3;wt%;Unknown;0,05;wt%;Unknown;0,16;wt%;Unknown;;;;;;;;;;2;wt%;Unknown;2,9;wt%;Unknown;;;;;;;;;;35;ppm;INAA;51;ppm;INAA;85;ppm;INAA;;;;82;ppm;INAA;;;;;;;;;;;;;;;;52000;ppm;INAA;;;;;;;;;;;;;;;;;;;;;;;;;;;;;;;;;;;;;;;;;;;;;;;;;;;;;;;;;;;;;;;;;;;;;;;;;;;;;;;;;;;;;;;;;;;;;;;;;;;;;;;;;;;;;;;;10;ppm;ENAA;23;ppm;ENAA;;;;13;ppm;ENAA;3,4;ppm;ENAA;1,2;ppm;ENAA;;;;0,69;ppm;ENAA;;;;0,8;ppm;ENAA;;;;;;;2,9;ppm;ENAA;0,41;ppm;ENAA;0,02;wt%;Unknown;;;;;;;;;;;;;;;;;;;;;;;;;;;;;;;;;;;;;61;ppm;INAA;;;;;;;52000;ppm;INAA;;;;51;ppm;INAA;28;ppm;INAA;;;;85;ppm;INAA;14;ppm;INAA;;;;2;ppm;ENAA;;;;;;;400;ppm;INAA;26;ppm;INAA;;;;;;;;;;6,4;ppm;INAA;35;ppm;INAA;;;;;;;2,5;ppm;INAA;;;;;;;2,1;ppm;INAA;;;;;;;;;;;;;;;;37;ppm;INAA;;;;220;ppm;INAA;0,33;ppm;ENAA;1,9;ppm;ENAA;;;;;;;0,6;ppm;ENAA;240;ppm;INAA;;;;25;ppm;ES;82;ppm;INAA;77;ppm;INAA;;;;;;;;;;;;;;;;;;;;;;;;;;;;;;;;;;2;wt%;Unknown;2,9;wt%;Unknown;2;wt%;Unknown;2,9;wt%;Unknown;;;
GOTT-CAMP-CC3-777;;GOTTFRIED-CC;GOTTFRIED , 1983;33;-80,15;1;;;CONTINENTAL_RIFT;;;;"ENAA; ES; INAA; Unknown";WHOLE ROCK;IGNEOUS:VOLCANIC:MAFIC;BASALT;;47,8;wt%;Unknown;1,1;wt%;Unknown;14,2;wt%;Unknown;;;;5,6;wt%;Unknown;;;;6,4;wt%;Unknown;;;;;;;0,3;wt%;Unknown;5,9;wt%;Unknown;5;wt%;Unknown;;;;3,6;wt%;Unknown;1,3;wt%;Unknown;0,16;wt%;Unknown;;;;;;;;;;2,3;wt%;Unknown;5,9;wt%;Unknown;;;;;;;;;;26;ppm;INAA;67;ppm;INAA;20;ppm;INAA;;;;50;ppm;INAA;;;;;;;;;;;;;;;;39000;ppm;INAA;;;;;;;;;;;;;;;;;;;;;;;;;;;;;;;;;;;;;;;;;;;;;;;;;;;;;;;;;;;;;;;;;;;;;;;;;;;;;;;;;;;;;;;;;;;;;;;;;;;;;;;;;;;;;;;;11;ppm;ENAA;20;ppm;ENAA;;;;14;ppm;ENAA;3,4;ppm;ENAA;1,07;ppm;ENAA;;;;0,76;ppm;ENAA;;;;0,8;ppm;ENAA;;;;;;;2,9;ppm;ENAA;0,44;ppm;ENAA;0,24;wt%;Unknown;;;;;;;;;;;;;;;;;;;;;;;;;;;;;;;;;;;;;550;ppm;INAA;;;;;;;39000;ppm;INAA;;;;67;ppm;INAA;57;ppm;INAA;;;;20;ppm;INAA;14;ppm;INAA;;;;2,5;ppm;ENAA;;;;;;;12000;ppm;INAA;7,5;ppm;INAA;;;;;;;;;;6,8;ppm;INAA;26;ppm;INAA;;;;;;;5,5;ppm;INAA;;;;;;;44;ppm;INAA;;;;;;;;;;;;;;;;44;ppm;INAA;;;;410;ppm;INAA;0,42;ppm;ENAA;2,6;ppm;ENAA;;;;;;;0,7;ppm;ENAA;290;ppm;INAA;;;;24;ppm;ES;50;ppm;INAA;87;ppm;INAA;;;;;;;;;;;;;;;;;;;;;;;;;;;;;;;;;;2,3;wt%;Unknown;5,9;wt%;Unknown;2,3;wt%;Unknown;5,9;wt%;Unknown;;;
GOTT-CAMP-CC3-782;;GOTTFRIED-CC;GOTTFRIED , 1983;33;-80,15;1;;;CONTINENTAL_RIFT;;;;"ENAA; ES; INAA; Unknown";WHOLE ROCK;IGNEOUS:VOLCANIC:MAFIC;BASALT;;46,2;wt%;Unknown;1,1;wt%;Unknown;14,8;wt%;Unknown;;;;4,7;wt%;Unknown;;;;7;wt%;Unknown;;;;;;;0,24;wt%;Unknown;6,5;wt%;Unknown;5,8;wt%;Unknown;;;;5;wt%;Unknown;0,93;wt%;Unknown;0,16;wt%;Unknown;;;;;;;;;;1,7;wt%;Unknown;5,5;wt%;Unknown;;;;;;;;;;20;ppm;INAA;43;ppm;INAA;22;ppm;INAA;;;;68;ppm;INAA;;;;;;;;;;;;;;;;44000;ppm;INAA;;;;;;;;;;;;;;;;;;;;;;;;;;;;;;;;;;;;;;;;;;;;;;;;;;;;;;;;;;;;;;;;;;;;;;;;;;;;;;;;;;;;;;;;;;;;;;;;;;;;;;;;;;;;;;;;10;ppm;ENAA;20;ppm;ENAA;;;;13;ppm;ENAA;3,4;ppm;ENAA;1,09;ppm;ENAA;;;;0,75;ppm;ENAA;;;;0,8;ppm;ENAA;;;;;;;2,6;ppm;ENAA;0,38;ppm;ENAA;0,08;wt%;Unknown;;;;;;;;;;;;;;;;;;;;;;;;;;;;;;;;;;;;;180;ppm;INAA;;;;;;;44000;ppm;INAA;;;;43;ppm;INAA;50;ppm;INAA;;;;22;ppm;INAA;14;ppm;INAA;;;;2,2;ppm;ENAA;;;;;;;8300;ppm;INAA;8,9;ppm;INAA;;;;;;;;;;6,9;ppm;INAA;20;ppm;INAA;;;;;;;6;ppm;INAA;;;;;;;36;ppm;INAA;;;;;;;;;;;;;;;;41;ppm;INAA;;;;260;ppm;INAA;0,47;ppm;ENAA;2,4;ppm;ENAA;;;;;;;0,6;ppm;ENAA;290;ppm;INAA;;;;25;ppm;ES;68;ppm;INAA;87;ppm;INAA;;;;;;;;;;;;;;;;;;;;;;;;;;;;;;;;;;1,7;wt%;Unknown;5,5;wt%;Unknown;1,7;wt%;Unknown;5,5;wt%;Unknown;;;
GOTT-CAMP-CC3-784.4;;GOTTFRIED-CC;GOTTFRIED , 1983;33;-80,15;1;;;CONTINENTAL_RIFT;;;;"ENAA; ES; INAA; Unknown";WHOLE ROCK;IGNEOUS:VOLCANIC:MAFIC;BASALT;;55,1;wt%;Unknown;0,89;wt%;Unknown;13,3;wt%;Unknown;;;;4,5;wt%;Unknown;;;;5,3;wt%;Unknown;;;;;;;0,19;wt%;Unknown;6;wt%;Unknown;5,8;wt%;Unknown;;;;4,2;wt%;Unknown;0,74;wt%;Unknown;0,15;wt%;Unknown;;;;;;;;;;1,5;wt%;Unknown;3,4;wt%;Unknown;;;;;;;;;;20;ppm;INAA;38;ppm;INAA;19;ppm;INAA;;;;69;ppm;INAA;;;;;;;;;;;;;;;;43000;ppm;INAA;;;;;;;;;;;;;;;;;;;;;;;;;;;;;;;;;;;;;;;;;;;;;;;;;;;;;;;;;;;;;;;;;;;;;;;;;;;;;;;;;;;;;;;;;;;;;;;;;;;;;;;;;;;;;;;;10;ppm;ENAA;20;ppm;ENAA;;;;12;ppm;ENAA;3;ppm;ENAA;1,1;ppm;ENAA;;;;0,67;ppm;ENAA;;;;0,7;ppm;ENAA;;;;;;;2,6;ppm;ENAA;0,35;ppm;ENAA;0,36;wt%;Unknown;;;;;;;;;;;;;;;;;;;;;;;;;;;;;;;;;;;;;74;ppm;INAA;;;;;;;43000;ppm;INAA;;;;38;ppm;INAA;48;ppm;INAA;;;;19;ppm;INAA;13;ppm;INAA;;;;2,1;ppm;ENAA;;;;;;;6400;ppm;INAA;27;ppm;INAA;;;;;;;;;;5,8;ppm;INAA;20;ppm;INAA;;;;;;;4,8;ppm;INAA;;;;;;;9,8;ppm;INAA;;;;;;;;;;;;;;;;41;ppm;INAA;;;;150;ppm;INAA;0,26;ppm;ENAA;2,1;ppm;ENAA;;;;;;;0,6;ppm;ENAA;250;ppm;INAA;;;;25;ppm;ES;69;ppm;INAA;82;ppm;INAA;;;;;;;;;;;;;;;;;;;;;;;;;;;;;;;;;;1,5;wt%;Unknown;3,4;wt%;Unknown;1,5;wt%;Unknown;3,4;wt%;Unknown;;;
GOTT-CAMP-CC3-921;;GOTTFRIED-CC;GOTTFRIED , 1983;33;-80,15;1;;;CONTINENTAL_RIFT;;;;"ENAA; ES; INAA; Unknown";WHOLE ROCK;IGNEOUS:VOLCANIC:MAFIC;BASALT;;52,1;wt%;Unknown;1,1;wt%;Unknown;14,3;wt%;Unknown;;;;3,4;wt%;Unknown;;;;7,8;wt%;Unknown;;;;;;;0,17;wt%;Unknown;6,7;wt%;Unknown;10,6;wt%;Unknown;;;;2,3;wt%;Unknown;0,16;wt%;Unknown;0,14;wt%;Unknown;;;;;;;;;;1,5;wt%;Unknown;1,1;wt%;Unknown;;;;;;;;;;33;ppm;INAA;49;ppm;INAA;48;ppm;INAA;;;;81;ppm;INAA;;;;;;;;;;;;;;;;77000;ppm;INAA;;;;;;;;;;;;;;;;;;;;;;;;;;;;;;;;;;;;;;;;;;;;;;;;;;;;;;;;;;;;;;;;;;;;;;;;;;;;;;;;;;;;;;;;;;;;;;;;;;;;;;;;;;;;;;;;8;ppm;ENAA;20;ppm;ENAA;;;;12;ppm;ENAA;3,2;ppm;ENAA;1,1;ppm;ENAA;;;;0,81;ppm;ENAA;;;;0,8;ppm;ENAA;;;;;;;2,7;ppm;ENAA;0,43;ppm;ENAA;0,04;wt%;Unknown;;;;;;;;;;;;;;;;;;;;;;;;;;;;;;;;;;;;;110;ppm;INAA;;;;;;;77000;ppm;INAA;;;;49;ppm;INAA;190;ppm;INAA;;;;48;ppm;INAA;17;ppm;INAA;;;;2,2;ppm;ENAA;;;;;;;1300;ppm;INAA;2;ppm;INAA;;;;;;;;;;5,9;ppm;INAA;33;ppm;INAA;;;;;;;4;ppm;INAA;;;;;;;1,5;ppm;INAA;;;;;;;;;;;;;;;;43;ppm;INAA;;;;150;ppm;INAA;0,28;ppm;ENAA;1,7;ppm;ENAA;;;;;;;0,5;ppm;ENAA;300;ppm;INAA;;;;29;ppm;ES;81;ppm;INAA;85;ppm;INAA;;;;;;;;;;;;;;;;;;;;;;;;;;;;;;;;;;1,5;wt%;Unknown;1,1;wt%;Unknown;1,5;wt%;Unknown;1,1;wt%;Unknown;;;
GOTT-CAMP-CC3-924;;GOTTFRIED-CC;GOTTFRIED , 1983;33;-80,15;1;;;CONTINENTAL_RIFT;;;;"ES; INAA";WHOLE ROCK;IGNEOUS:VOLCANIC:MAFIC;BASALT;;;;;;;;;;;;;;;;;;;;;;;;;;;;;;;;;;;;;;;;;;;;;;;;;;;;;;;;;;;;;;;;;;;;;;;;;;200;ppm;INAA;33;ppm;INAA;37;ppm;INAA;;;;63;ppm;INAA;;;;;;;;;;;;;;;;;;;;;;;;;;;;;;;;;;;;;;;;;;;;;;;;;;;;;;;;;;;;;;;;;;;;;;;;;;;;;;;;;;;;;;;;;;;;;;;;;;;;;;;;;;;;;;;;;;;;;;;;;;;;;;;;;;;;;;;;;;;;;;;;;;;;;;;;;;;;;;;;;;;;;;;;;;;;;;;;;;;;;;;;;;;;;;;;;;;;;;;;;;;;;;;;;;;250;ppm;INAA;;;;;;;;;;;;;33;ppm;INAA;370;ppm;INAA;;;;37;ppm;INAA;12;ppm;INAA;;;;;;;;;;;;;49000;ppm;INAA;5,3;ppm;INAA;;;;;;;;;;;;;200;ppm;INAA;;;;;;;16;ppm;INAA;;;;;;;270;ppm;INAA;;;;;;;;;;;;;;;;19;ppm;INAA;;;;76;ppm;INAA;;;;;;;;;;;;;;;;82;ppm;INAA;;;;20;ppm;ES;63;ppm;INAA;110;ppm;INAA;;;;;;;;;;;;;;;;;;;;;;;;;;;;;;;;;;;;;;;;;;;;;;;;
GOTT-CAMP-CC3-926.3;;GOTTFRIED-CC;GOTTFRIED , 1983;33;-80,15;1;;;CONTINENTAL_RIFT;;;;"ENAA; ES; INAA; Unknown";WHOLE ROCK;IGNEOUS:VOLCANIC:MAFIC;BASALT;;42,9;wt%;Unknown;0,52;wt%;Unknown;14,6;wt%;Unknown;;;;6,6;wt%;Unknown;;;;3,8;wt%;Unknown;;;;;;;0,18;wt%;Unknown;10,6;wt%;Unknown;11,4;wt%;Unknown;;;;1,6;wt%;Unknown;0,05;wt%;Unknown;0,09;wt%;Unknown;;;;;;;;;;3,3;wt%;Unknown;2,7;wt%;Unknown;;;;;;;;;;530;ppm;INAA;69;ppm;INAA;150;ppm;INAA;;;;56;ppm;INAA;;;;;;;;;;;;;;;;89000;ppm;INAA;;;;;;;;;;;;;;;;;;;;;;;;;;;;;;;;;;;;;;;;;;;;;;;;;;;;;;;;;;;;;;;;;;;;;;;;;;;;;;;;;;;;;;;;;;;;;;;;;;;;;;;;;;;;;;;;5,5;ppm;ENAA;14;ppm;ENAA;;;;9;ppm;ENAA;1,8;ppm;ENAA;0,62;ppm;ENAA;;;;;;;;;;0,7;ppm;ENAA;;;;;;;2,5;ppm;ENAA;0,36;ppm;ENAA;0,9;wt%;Unknown;;;;;;;;;;;;;;;;;;;;;;;;;;;;;;;;;;;;;70;ppm;INAA;;;;;;;89000;ppm;INAA;;;;69;ppm;INAA;790;ppm;INAA;;;;150;ppm;INAA;13;ppm;INAA;;;;1,1;ppm;ENAA;;;;;;;400;ppm;INAA;11;ppm;INAA;;;;;;;;;;5,5;ppm;INAA;530;ppm;INAA;;;;;;;3;ppm;INAA;;;;;;;1,5;ppm;INAA;;;;;;;;;;;;;;;;43;ppm;INAA;;;;110;ppm;INAA;0,17;ppm;ENAA;1;ppm;ENAA;;;;;;;;;;230;ppm;INAA;;;;23;ppm;ES;56;ppm;INAA;53;ppm;INAA;;;;;;;;;;;;;;;;;;;;;;;;;;;;;;;;;;3,3;wt%;Unknown;2,7;wt%;Unknown;3,3;wt%;Unknown;2,7;wt%;Unknown;;;
GOTT-CAMP-CC3-928;;GOTTFRIED-CC;GOTTFRIED , 1983;33;-80,15;1;;;CONTINENTAL_RIFT;;;;"ENAA; ES; INAA; Unknown";WHOLE ROCK;IGNEOUS:VOLCANIC:MAFIC;BASALT;;44,3;wt%;Unknown;0,47;wt%;Unknown;13,2;wt%;Unknown;;;;4,9;wt%;Unknown;;;;5,4;wt%;Unknown;;;;;;;0,14;wt%;Unknown;12,8;wt%;Unknown;8,5;wt%;Unknown;;;;1,2;wt%;Unknown;0,27;wt%;Unknown;0,07;wt%;Unknown;;;;;;;;;;4,5;wt%;Unknown;4,9;wt%;Unknown;;;;;;;;;;530;ppm;INAA;70;ppm;INAA;120;ppm;INAA;;;;62;ppm;INAA;;;;;;;;;;;;;;;;66000;ppm;INAA;;;;;;;;;;;;;;;;;;;;;;;;;;;;;;;;;;;;;;;;;;;;;;;;;;;;;;;;;;;;;;;;;;;;;;;;;;;;;;;;;;;;;;;;;;;;;;;;;;;;;;;;;;;;;;;;5;ppm;ENAA;12;ppm;ENAA;;;;;;;1,6;ppm;ENAA;0,57;ppm;ENAA;;;;0,41;ppm;ENAA;;;;0,6;ppm;ENAA;;;;;;;2;ppm;ENAA;0,34;ppm;ENAA;0,82;wt%;Unknown;;;;;;;;;;;;;;;;;;;;;;;;;;;;;;;;;;;;;69;ppm;INAA;;;;;;;66000;ppm;INAA;;;;70;ppm;INAA;800;ppm;INAA;;;;120;ppm;INAA;11;ppm;INAA;;;;1,1;ppm;ENAA;;;;;;;2500;ppm;INAA;7,8;ppm;INAA;;;;;;;;;;4,5;ppm;INAA;530;ppm;INAA;;;;;;;2,1;ppm;INAA;;;;;;;4,1;ppm;INAA;;;;;;;;;;;;;;;;33;ppm;INAA;;;;83;ppm;INAA;0,21;ppm;ENAA;1;ppm;ENAA;;;;;;;0,3;ppm;ENAA;180;ppm;INAA;;;;17;ppm;ES;62;ppm;INAA;46;ppm;INAA;;;;;;;;;;;;;;;;;;;;;;;;;;;;;;;;;;4,5;wt%;Unknown;4,9;wt%;Unknown;4,5;wt%;Unknown;4,9;wt%;Unknown;;;
GOTT-CAMP-CC3-930;;GOTTFRIED-CC;GOTTFRIED , 1983;33;-80,15;1;;;CONTINENTAL_RIFT;;;;"ENAA; ES; INAA; Unknown";WHOLE ROCK;IGNEOUS:VOLCANIC:MAFIC;BASALT;;43,2;wt%;Unknown;0,49;wt%;Unknown;13,4;wt%;Unknown;;;;3,8;wt%;Unknown;;;;6,9;wt%;Unknown;;;;;;;0,22;wt%;Unknown;15,3;wt%;Unknown;7,4;wt%;Unknown;;;;1,2;wt%;Unknown;0,15;wt%;Unknown;0,08;wt%;Unknown;;;;;;;;;;2,8;wt%;Unknown;5,4;wt%;Unknown;;;;;;;;;;530;ppm;INAA;68;ppm;INAA;98;ppm;INAA;;;;74;ppm;INAA;;;;;;;;;;;;;;;;57000;ppm;INAA;;;;;;;;;;;;;;;;;;;;;;;;;;;;;;;;;;;;;;;;;;;;;;;;;;;;;;;;;;;;;;;;;;;;;;;;;;;;;;;;;;;;;;;;;;;;;;;;;;;;;;;;;;;;;;;;5;ppm;ENAA;12;ppm;ENAA;;;;6,5;ppm;ENAA;1,7;ppm;ENAA;0,51;ppm;ENAA;;;;;;;;;;0,6;ppm;ENAA;;;;;;;2,3;ppm;ENAA;0,34;ppm;ENAA;0,1;wt%;Unknown;;;;;;;;;;;;;;;;;;;;;;;;;;;;;;;;;;;;;64;ppm;INAA;;;;;;;57000;ppm;INAA;;;;68;ppm;INAA;650;ppm;INAA;;;;98;ppm;INAA;12;ppm;INAA;;;;1,2;ppm;ENAA;;;;;;;1300;ppm;INAA;33;ppm;INAA;;;;;;;;;;4,1;ppm;INAA;530;ppm;INAA;;;;;;;2,2;ppm;INAA;;;;;;;2,3;ppm;INAA;;;;;;;;;;;;;;;;39;ppm;INAA;;;;60;ppm;INAA;;;;1;ppm;ENAA;;;;;;;;;;230;ppm;INAA;;;;20;ppm;ES;74;ppm;INAA;45;ppm;INAA;;;;;;;;;;;;;;;;;;;;;;;;;;;;;;;;;;2,8;wt%;Unknown;5,4;wt%;Unknown;2,8;wt%;Unknown;5,4;wt%;Unknown;;;
GOTT-CAMP-CC3-984;;GOTTFRIED-CC;GOTTFRIED , 1983;33;-80,15;1;;;CONTINENTAL_RIFT;;;;"ENAA; ES; INAA; Unknown";WHOLE ROCK;IGNEOUS:VOLCANIC:MAFIC;BASALT;;52,9;wt%;Unknown;1,1;wt%;Unknown;14,1;wt%;Unknown;;;;3,8;wt%;Unknown;;;;8;wt%;Unknown;;;;;;;0,24;wt%;Unknown;5,6;wt%;Unknown;8,7;wt%;Unknown;;;;2,8;wt%;Unknown;0,64;wt%;Unknown;0,18;wt%;Unknown;;;;;;;;;;0,41;wt%;Unknown;1,2;wt%;Unknown;;;;;;;;;;33;ppm;INAA;43;ppm;INAA;66;ppm;INAA;;;;92;ppm;INAA;;;;;;;;;;;;;;;;64000;ppm;INAA;;;;;;;;;;;;;;;;;;;;;;;;;;;;;;;;;;;;;;;;;;;;;;;;;;;;;;;;;;;;;;;;;;;;;;;;;;;;;;;;;;;;;;;;;;;;;;;;;;;;;;;;;;;;;;;;12;ppm;ENAA;22;ppm;ENAA;;;;15;ppm;ENAA;3,8;ppm;ENAA;1,32;ppm;ENAA;;;;0,83;ppm;ENAA;;;;0,8;ppm;ENAA;;;;;;;3;ppm;ENAA;0,43;ppm;ENAA;0,02;wt%;Unknown;;;;;;;;;;;;;;;;;;;;;;;;;;;;;;;;;;;;;170;ppm;INAA;;;;;;;64000;ppm;INAA;;;;43;ppm;INAA;32;ppm;INAA;;;;66;ppm;INAA;17;ppm;INAA;;;;2,6;ppm;ENAA;;;;;;;5400;ppm;INAA;8,4;ppm;INAA;;;;;;;;;;6,2;ppm;INAA;33;ppm;INAA;;;;;;;5,5;ppm;INAA;;;;;;;17;ppm;INAA;;;;;;;;;;;;;;;;41;ppm;INAA;;;;230;ppm;INAA;0,41;ppm;ENAA;2,4;ppm;ENAA;;;;;;;0,7;ppm;ENAA;320;ppm;INAA;;;;28;ppm;ES;92;ppm;INAA;100;ppm;INAA;;;;;;;;;;;;;;;;;;;;;;;;;;;;;;;;;;0,41;wt%;Unknown;1,2;wt%;Unknown;0,41;wt%;Unknown;1,2;wt%;Unknown;;;
GROSCAMP-W-217690;;GROSSMAN-CAMP;GROSSMAN, 1991;38,6833;-77,6028;0,001;;;CONTINENTAL_RIFT;;;;"AAS; COL; ICP; INAA; TITR; Unknown";WHOLE ROCK;IGNEOUS:VOLCANIC:MAFIC;DIABASE;;51;wt%;COL;0,61;wt%;COL;16,2;wt%;COL;;;;1,6;wt%;Unknown;;;;7,9;wt%;TITR;;;;;;;0,19;wt%;AAS;7,7;wt%;AAS;11,6;wt%;Unknown;;;;2,08;wt%;Unknown;0,43;wt%;AAS;0,09;wt%;COL;;;;;;;;;;0,18;wt%;TITR;0,37;wt%;TITR;;;;;;;;;;78;ppm;Unknown;44;ppm;Unknown;54;ppm;Unknown;;;;81;ppm;Unknown;;;;;;;;;;;;;;;;;;;;;;;;;;;;;;;;;;;;;;;;;;;;;;;;;;;;;;;;;;;;;;;;;;;;;;;;;;;;;;;;;;;;;;;;;;;;;;;;;;;;;;;;;;;;;;;;;;;;;;;;;;;;;;;;;;5,1;ppm;INAA;10,6;ppm;INAA;;;;5,1;ppm;INAA;1,72;ppm;INAA;0,63;ppm;INAA;;;;0,39;ppm;INAA;;;;;;;;;;;;;1,7;ppm;INAA;0,277;ppm;INAA;0,09;ppm;TITR;;;;;;;;;;;;;;;;;;;;;;;;;;;;;;;;;;;;;104;ppm;Unknown;;;;;;;;;;;;;44;ppm;Unknown;253;ppm;Unknown;0,64;ppm;INAA;54;ppm;Unknown;;;;;;;1,2;ppm;INAA;;;;;;;;;;;;;;;;;;;;;;3,4;ppm;ICP;78;ppm;Unknown;;;;;;;;;;0,5;ppm;Unknown;4,3;ppm;Unknown;8;ppm;Unknown;;;;;;;;;;;;;;;;39;ppm;INAA;;;;140;ppm;Unknown;0,27;ppm;INAA;0,96;ppm;INAA;;;;;;;0,32;ppm;INAA;;;;;;;18;ppm;Unknown;81;ppm;Unknown;54;ppm;Unknown;;;;;;;;;;;;;;;;;;;;;;;;;;;;;;;;;;0,18;wt%;TITR;0,37;wt%;TITR;0,18;wt%;TITR;0,37;wt%;TITR;;;