SAMPLE ID;IGSN;EXPEDITION ID;REFERENCES;LATITUDE;LONGITUDE;LOC PREC;MIN ELEVATION;MAX ELEVATION;TECTONIC SETTING;MIN AGE;AGE;MAX AGE;METHOD;ANALYZED MATERIAL;ROCK TYPE;ROCK NAME;MINERAL;SIO2;SIO2 Units;SIO2 Method;TIO2;TIO2 Units;TIO2 Method;AL2O3;AL2O3 Units;AL2O3 Method;CR2O3;CR2O3 Units;CR2O3 Method;FE2O3;FE2O3 Units;FE2O3 Method;FE2O3T;FE2O3T Units;FE2O3T Method;FEO;FEO Units;FEO Method;FEOT;FEOT Units;FEOT Method;NIO;NIO Units;NIO Method;MNO;MNO Units;MNO Method;MGO;MGO Units;MGO Method;CAO;CAO Units;CAO Method;SRO;SRO Units;SRO Method;NA2O;NA2O Units;NA2O Method;K2O;K2O Units;K2O Method;P2O5;P2O5 Units;P2O5 Method;BAO;BAO Units;BAO Method;LOI;LOI Units;LOI Method;H2O;H2O Units;H2O Method;H2O_M;H2O_M Units;H2O_M Method;H2O_P;H2O_P Units;H2O_P Method;SO3;SO3 Units;SO3 Method;COO;COO Units;COO Method;MN;MN Units;MN Method;NI;NI Units;NI Method;CO;CO Units;CO Method;CU;CU Units;CU Method;CD;CD Units;CD Method;ZN;ZN Units;ZN Method;AS;AS Units;AS Method;AG;AG Units;AG Method;S;S Units;S Method;ZRO2;ZRO2 Units;ZRO2 Method;AL;AL Units;AL Method;CA;CA Units;CA Method;SR87_SR86;SR87_SR86 Units;SR87_SR86 Method;SR87_SR86_INI;SR87_SR86_INI Units;SR87_SR86_INI Method;RB87_SR86;RB87_SR86 Units;RB87_SR86 Method;ND143_ND144;ND143_ND144 Units;ND143_ND144 Method;ND143_ND144_INI;ND143_ND144_INI Units;ND143_ND144_INI Method;SM147_ND144;SM147_ND144 Units;SM147_ND144 Method;E_ND;E_ND Units;E_ND Method;E_ND_INI;E_ND_INI Units;E_ND_INI Method;PB204_PB206;PB204_PB206 Units;PB204_PB206 Method;PB206_PB204;PB206_PB204 Units;PB206_PB204 Method;PB206_PB204_INI;PB206_PB204_INI Units;PB206_PB204_INI Method;PB207_PB204;PB207_PB204 Units;PB207_PB204 Method;PB207_PB204_INI;PB207_PB204_INI Units;PB207_PB204_INI Method;PB207_PB206;PB207_PB206 Units;PB207_PB206 Method;PB208_PB204;PB208_PB204 Units;PB208_PB204 Method;PB208_PB204_INI;PB208_PB204_INI Units;PB208_PB204_INI Method;PB208_PB206;PB208_PB206 Units;PB208_PB206 Method;HF176_HF177;HF176_HF177 Units;HF176_HF177 Method;RE187_OS188;RE187_OS188 Units;RE187_OS188 Method;OS187_OS188;OS187_OS188 Units;OS187_OS188 Method;OS187_OS188_INI;OS187_OS188_INI Units;OS187_OS188_INI Method;G_OS;G_OS Units;G_OS Method;G_OS_INI;G_OS_INI Units;G_OS_INI Method;ND143_ND144_INI;ND143_ND144_INI Units;ND143_ND144_INI Method;PB206_PB204_INI;PB206_PB204_INI Units;PB206_PB204_INI Method;PB207_PB204_INI;PB207_PB204_INI Units;PB207_PB204_INI Method;PB208_PB204_INI;PB208_PB204_INI Units;PB208_PB204_INI Method;SR87_SR86_INI;SR87_SR86_INI Units;SR87_SR86_INI Method;HE;HE Units;HE Method;HE3;HE3 Units;HE3 Method;HE3_HE4_R_RA;HE3_HE4_R_RA Units;HE3_HE4_R_RA Method;AR36;AR36 Units;AR36 Method;AR40;AR40 Units;AR40 Method;AR40_AR36;AR40_AR36 Units;AR40_AR36 Method;NE20;NE20 Units;NE20 Method;NE20_NE22;NE20_NE22 Units;NE20_NE22 Method;NE21_NE22;NE21_NE22 Units;NE21_NE22 Method;LA;LA Units;LA Method;CE;CE Units;CE Method;PR;PR Units;PR Method;ND;ND Units;ND Method;SM;SM Units;SM Method;EU;EU Units;EU Method;GD;GD Units;GD Method;TB;TB Units;TB Method;DY;DY Units;DY Method;HO;HO Units;HO Method;ER;ER Units;ER Method;TM;TM Units;TM Method;YB;YB Units;YB Method;LU;LU Units;LU Method;CO2;CO2 Units;CO2 Method;F;F Units;F Method;CL;CL Units;CL Method;U238_PB204;U238_PB204 Units;U238_PB204 Method;TH230_TH232;TH230_TH232 Units;TH230_TH232 Method;RA226_ACTIVITY;RA226_ACTIVITY Units;RA226_ACTIVITY Method;PB210_RA226;PB210_RA226 Units;PB210_RA226 Method;PB210_ACTIVITY;PB210_ACTIVITY Units;PB210_ACTIVITY Method;AG;AG Units;AG Method;AL;AL Units;AL Method;AS;AS Units;AS Method;AU;AU Units;AU Method;B;B Units;B Method;BA;BA Units;BA Method;BE;BE Units;BE Method;BI;BI Units;BI Method;CA;CA Units;CA Method;CD;CD Units;CD Method;CO;CO Units;CO Method;CR;CR Units;CR Method;CS;CS Units;CS Method;CU;CU Units;CU Method;GA;GA Units;GA Method;GER;GER Units;GER Method;HF;HF Units;HF Method;INDIUM;INDIUM Units;INDIUM Method;IR;IR Units;IR Method;K;K Units;K Method;LI;LI Units;LI Method;MN;MN Units;MN Method;MO;MO Units;MO Method;NA;NA Units;NA Method;NB;NB Units;NB Method;NI;NI Units;NI Method;OS;OS Units;OS Method;P;P Units;P Method;PB;PB Units;PB Method;PD;PD Units;PD Method;PT;PT Units;PT Method;RB;RB Units;RB Method;RE;RE Units;RE Method;RH;RH Units;RH Method;RU;RU Units;RU Method;S;S Units;S Method;SB;SB Units;SB Method;SC;SC Units;SC Method;SN;SN Units;SN Method;SR;SR Units;SR Method;TA;TA Units;TA Method;TH;TH Units;TH Method;TI;TI Units;TI Method;TL;TL Units;TL Method;U;U Units;U Method;V;V Units;V Method;W;W Units;W Method;Y;Y Units;Y Method;ZN;ZN Units;ZN Method;ZR;ZR Units;ZR Method;DELTA_O18;DELTA_O18 Units;DELTA_O18 Method;DELTA_C13;DELTA_C13 Units;DELTA_C13 Method;DELTA_MO98;DELTA_MO98 Units;DELTA_MO98 Method;DELTA_ZN66;DELTA_ZN66 Units;DELTA_ZN66 Method;DELTA_ZN68;DELTA_ZN68 Units;DELTA_ZN68 Method;OS188;OS188 Units;OS188 Method;FE3P_FET;FE3P_FET Units;FE3P_FET Method;TI;TI Units;TI Method;AS;AS Units;AS Method;AS;AS Units;AS Method;GER;GER Units;GER Method;H2O_M;H2O_M Units;H2O_M Method;H2O_P;H2O_P Units;H2O_P Method;H2O_M;H2O_M Units;H2O_M Method;H2O_P;H2O_P Units;H2O_P Method;INDIUM;INDIUM Units;INDIUM Method
GOTT-CAMP-CC2-836;;GOTTFRIED-CC;GOTTFRIED , 1983;33;-80,15;1;;;CONTINENTAL_RIFT;;;;"ENAA; ES; INAA; Unknown";WHOLE ROCK;IGNEOUS:VOLCANIC:MAFIC;BASALT;;53,8;wt%;Unknown;1;wt%;Unknown;14,2;wt%;Unknown;;;;2,4;wt%;Unknown;;;;8,5;wt%;Unknown;;;;;;;0,16;wt%;Unknown;5,9;wt%;Unknown;9,5;wt%;Unknown;;;;2,2;wt%;Unknown;0,35;wt%;Unknown;0,15;wt%;Unknown;;;;;;;;;;0,95;wt%;Unknown;1,5;wt%;Unknown;;;;;;;;;;22;ppm;INAA;48;ppm;INAA;20;ppm;INAA;;;;97;ppm;INAA;;;;;;;;;;;;;;;;69000;ppm;INAA;;;;;;;;;;;;;;;;;;;;;;;;;;;;;;;;;;;;;;;;;;;;;;;;;;;;;;;;;;;;;;;;;;;;;;;;;;;;;;;;;;;;;;;;;;;;;;;;;;;;;;;;;;;;;;;;10;ppm;ENAA;20;ppm;ENAA;;;;12;ppm;ENAA;3,1;ppm;ENAA;0,93;ppm;ENAA;3,4;ppm;ENAA;0,71;ppm;ENAA;;;;0,7;ppm;ENAA;;;;0,31;ppm;ENAA;2,6;ppm;ENAA;0,41;ppm;ENAA;0,04;wt%;Unknown;;;;;;;;;;;;;;;;;;;;;;;;;;;;;;;;;;;;;190;ppm;INAA;;;;;;;69000;ppm;INAA;;;;48;ppm;INAA;69;ppm;INAA;;;;20;ppm;INAA;16;ppm;INAA;;;;2,1;ppm;ENAA;;;;;;;3000;ppm;INAA;5,8;ppm;INAA;;;;;;;;;;6,5;ppm;INAA;22;ppm;INAA;;;;;;;6,2;ppm;INAA;;;;;;;19;ppm;INAA;;;;;;;;;;;;;;;;44;ppm;INAA;;;;170;ppm;INAA;49;ppm;ENAA;2;ppm;ENAA;;;;;;;0,6;ppm;ENAA;270;ppm;INAA;;;;29;ppm;ES;97;ppm;INAA;91;ppm;INAA;;;;;;;;;;;;;;;;;;;;;;;;;;;;;;;;;;0,95;wt%;Unknown;1,5;wt%;Unknown;0,95;wt%;Unknown;1,5;wt%;Unknown;;;
GOTT-CAMP-CC2-842;;GOTTFRIED-CC;GOTTFRIED , 1983;33;-80,15;1;;;CONTINENTAL_RIFT;;;;"ENAA; ES; INAA; Unknown";WHOLE ROCK;IGNEOUS:VOLCANIC:MAFIC;BASALT;;53,6;wt%;Unknown;0,99;wt%;Unknown;14,4;wt%;Unknown;;;;2,8;wt%;Unknown;;;;8,6;wt%;Unknown;;;;;;;0,16;wt%;Unknown;5,9;wt%;Unknown;9,7;wt%;Unknown;;;;2,3;wt%;Unknown;0,33;wt%;Unknown;0,15;wt%;Unknown;;;;;;;;;;1;wt%;Unknown;1,2;wt%;Unknown;;;;;;;;;;23;ppm;INAA;47;ppm;INAA;21;ppm;INAA;;;;85;ppm;INAA;;;;;;;;;;;;;;;;70000;ppm;INAA;;;;;;;;;;;;;;;;;;;;;;;;;;;;;;;;;;;;;;;;;;;;;;;;;;;;;;;;;;;;;;;;;;;;;;;;;;;;;;;;;;;;;;;;;;;;;;;;;;;;;;;;;;;;;;;;9;ppm;ENAA;20;ppm;ENAA;;;;12;ppm;ENAA;3,2;ppm;ENAA;0,93;ppm;ENAA;3,1;ppm;ENAA;0,77;ppm;ENAA;;;;0,6;ppm;ENAA;;;;0,31;ppm;ENAA;2,5;ppm;ENAA;0,41;ppm;ENAA;0,13;wt%;Unknown;;;;;;;;;;;;;;;;;;;;;;;;;;;;;;;;;;;;;140;ppm;INAA;;;;;;;70000;ppm;INAA;;;;47;ppm;INAA;76;ppm;INAA;;;;21;ppm;INAA;17;ppm;INAA;;;;2;ppm;ENAA;;;;;;;2700;ppm;INAA;6,2;ppm;INAA;;;;;;;;;;5,9;ppm;INAA;23;ppm;INAA;;;;;;;4,5;ppm;INAA;;;;;;;24;ppm;INAA;;;;;;;;;;;;;;;;45;ppm;INAA;;;;170;ppm;INAA;0,49;ppm;ENAA;2,1;ppm;ENAA;;;;;;;;;;280;ppm;INAA;;;;30;ppm;ES;85;ppm;INAA;93;ppm;INAA;;;;;;;;;;;;;;;;;;;;;;;;;;;;;;;;;;1;wt%;Unknown;1,2;wt%;Unknown;1;wt%;Unknown;1,2;wt%;Unknown;;;
GOTT-CAMP-CC2-864;;GOTTFRIED-CC;GOTTFRIED , 1983;33;-80,15;1;;;CONTINENTAL_RIFT;;;;INAA;WHOLE ROCK;IGNEOUS:VOLCANIC:MAFIC;BASALT;;;;;;;;;;;;;;;;;;;;;;;;;;;;;;;;;;;;;;;;;;;;;;;;;;;;;;;;;;;;;;;;;;;;;;;;;;21;ppm;INAA;43;ppm;INAA;19;ppm;INAA;;;;88;ppm;INAA;;;;;;;;;;;;;;;;;;;;;;;;;;;;;;;;;;;;;;;;;;;;;;;;;;;;;;;;;;;;;;;;;;;;;;;;;;;;;;;;;;;;;;;;;;;;;;;;;;;;;;;;;;;;;;;;;;;;;;;;;;;;;;;;;;;;;;;;;;;;;;;;;;;;;;;;;;;;;;;;;;;;;;;;;;;;;;;;;;;;;;;;;;;;;;;;;;;;;;;;;;;;;;;;;;;170;ppm;INAA;;;;;;;;;;;;;43;ppm;INAA;58;ppm;INAA;;;;19;ppm;INAA;15;ppm;INAA;;;;;;;;;;;;;;;;25;ppm;INAA;;;;;;;;;;6,3;ppm;INAA;21;ppm;INAA;;;;;;;5,4;ppm;INAA;;;;;;;14;ppm;INAA;;;;;;;;;;;;;;;;46;ppm;INAA;;;;260;ppm;INAA;;;;;;;;;;;;;;;;270;ppm;INAA;;;;;;;88;ppm;INAA;82;ppm;INAA;;;;;;;;;;;;;;;;;;;;;;;;;;;;;;;;;;;;;;;;;;;;;;;;
GOTT-CAMP-CC2-869;;GOTTFRIED-CC;GOTTFRIED , 1983;33;-80,15;1;;;CONTINENTAL_RIFT;;;;"ENAA; ES; INAA; Unknown";WHOLE ROCK;IGNEOUS:VOLCANIC:MAFIC;BASALT;;53,3;wt%;Unknown;0,99;wt%;Unknown;14,4;wt%;Unknown;;;;1,8;wt%;Unknown;;;;8,7;wt%;Unknown;;;;;;;0,17;wt%;Unknown;6,1;wt%;Unknown;8,9;wt%;Unknown;;;;2,3;wt%;Unknown;0,81;wt%;Unknown;0,15;wt%;Unknown;;;;;;;;;;0,9;wt%;Unknown;1,9;wt%;Unknown;;;;;;;;;;21;ppm;INAA;44;ppm;INAA;19;ppm;INAA;;;;89;ppm;INAA;;;;;;;;;;;;;;;;65000;ppm;INAA;;;;;;;;;;;;;;;;;;;;;;;;;;;;;;;;;;;;;;;;;;;;;;;;;;;;;;;;;;;;;;;;;;;;;;;;;;;;;;;;;;;;;;;;;;;;;;;;;;;;;;;;;;;;;;;;10;ppm;ENAA;20;ppm;ENAA;;;;12;ppm;ENAA;3,2;ppm;ENAA;0,95;ppm;ENAA;3,1;ppm;ENAA;0,76;ppm;ENAA;;;;0,5;ppm;ENAA;;;;0,33;ppm;ENAA;2,8;ppm;ENAA;0,42;ppm;ENAA;0,01;wt%;Unknown;;;;;;;;;;;;;;;;;;;;;;;;;;;;;;;;;;;;;150;ppm;INAA;;;;;;;65000;ppm;INAA;;;;44;ppm;INAA;72;ppm;INAA;;;;19;ppm;INAA;16;ppm;INAA;;;;2;ppm;ENAA;;;;;;;6900;ppm;INAA;9,8;ppm;INAA;;;;;;;;;;6,8;ppm;INAA;21;ppm;INAA;;;;;;;4,5;ppm;INAA;;;;;;;21;ppm;INAA;;;;;;;;;;;;;;;;40;ppm;INAA;;;;170;ppm;INAA;0,43;ppm;ENAA;2,3;ppm;ENAA;;;;;;;0,7;ppm;ENAA;290;ppm;INAA;;;;26;ppm;ES;89;ppm;INAA;85;ppm;INAA;;;;;;;;;;;;;;;;;;;;;;;;;;;;;;;;;;0,9;wt%;Unknown;1,9;wt%;Unknown;0,9;wt%;Unknown;1,9;wt%;Unknown;;;
GOTT-CAMP-CC2-872;;GOTTFRIED-CC;GOTTFRIED , 1983;33;-80,15;1;;;CONTINENTAL_RIFT;;;;INAA;WHOLE ROCK;IGNEOUS:VOLCANIC:MAFIC;BASALT;;;;;;;;;;;;;;;;;;;;;;;;;;;;;;;;;;;;;;;;;;;;;;;;;;;;;;;;;;;;;;;;;;;;;;;;;;24;ppm;INAA;53;ppm;INAA;22;ppm;INAA;;;;100;ppm;INAA;;;;;;;;;;;;;;;;;;;;;;;;;;;;;;;;;;;;;;;;;;;;;;;;;;;;;;;;;;;;;;;;;;;;;;;;;;;;;;;;;;;;;;;;;;;;;;;;;;;;;;;;;;;;;;;;;;;;;;;;;;;;;;;;;;;;;;;;;;;;;;;;;;;;;;;;;;;;;;;;;;;;;;;;;;;;;;;;;;;;;;;;;;;;;;;;;;;;;;;;;;;;;;;;;;;180;ppm;INAA;;;;;;;;;;;;;53;ppm;INAA;62;ppm;INAA;;;;22;ppm;INAA;15;ppm;INAA;;;;;;;;;;;;;;;;16;ppm;INAA;;;;;;;;;;6;ppm;INAA;24;ppm;INAA;;;;;;;7,1;ppm;INAA;;;;;;;24;ppm;INAA;;;;;;;;;;;;;;;;38;ppm;INAA;;;;210;ppm;INAA;;;;;;;;;;;;;;;;280;ppm;INAA;;;;;;;100;ppm;INAA;86;ppm;INAA;;;;;;;;;;;;;;;;;;;;;;;;;;;;;;;;;;;;;;;;;;;;;;;;
GOTT-CAMP-CC2-878;;GOTTFRIED-CC;GOTTFRIED , 1983;33;-80,15;1;;;CONTINENTAL_RIFT;;;;"ENAA; ES; INAA; Unknown";WHOLE ROCK;IGNEOUS:VOLCANIC:MAFIC;BASALT;;51,2;wt%;Unknown;0,99;wt%;Unknown;13,4;wt%;Unknown;;;;4,3;wt%;Unknown;;;;6,5;wt%;Unknown;;;;;;;0,17;wt%;Unknown;6,4;wt%;Unknown;7,2;wt%;Unknown;;;;3,4;wt%;Unknown;1,5;wt%;Unknown;0,13;wt%;Unknown;;;;;;;;;;1,7;wt%;Unknown;3;wt%;Unknown;;;;;;;;;;25;ppm;INAA;43;ppm;INAA;30;ppm;INAA;;;;75;ppm;INAA;;;;;;;;;;;;;;;;54000;ppm;INAA;;;;;;;;;;;;;;;;;;;;;;;;;;;;;;;;;;;;;;;;;;;;;;;;;;;;;;;;;;;;;;;;;;;;;;;;;;;;;;;;;;;;;;;;;;;;;;;;;;;;;;;;;;;;;;;;9;ppm;ENAA;18;ppm;ENAA;;;;11;ppm;ENAA;3;ppm;ENAA;0,87;ppm;ENAA;2,9;ppm;ENAA;0,73;ppm;ENAA;;;;;;;;;;0,32;ppm;ENAA;2,5;ppm;ENAA;0,39;ppm;ENAA;0,01;wt%;Unknown;;;;;;;;;;;;;;;;;;;;;;;;;;;;;;;;;;;;;200;ppm;INAA;;;;;;;54000;ppm;INAA;;;;43;ppm;INAA;97;ppm;INAA;;;;30;ppm;INAA;12;ppm;INAA;;;;1,9;ppm;ENAA;;;;;;;12000;ppm;INAA;15;ppm;INAA;;;;;;;;;;6;ppm;INAA;25;ppm;INAA;;;;;;;4,1;ppm;INAA;;;;;;;54;ppm;INAA;;;;;;;;;;;;;;;;37;ppm;INAA;;;;210;ppm;INAA;0,42;ppm;ENAA;1,7;ppm;ENAA;;;;;;;0,8;ppm;ENAA;300;ppm;INAA;;;;25;ppm;ES;75;ppm;INAA;82;ppm;INAA;;;;;;;;;;;;;;;;;;;;;;;;;;;;;;;;;;1,7;wt%;Unknown;3;wt%;Unknown;1,7;wt%;Unknown;3;wt%;Unknown;;;
GOTT-CAMP-CC2-888;;GOTTFRIED-CC;GOTTFRIED , 1983;33;-80,15;1;;;CONTINENTAL_RIFT;;;;INAA;WHOLE ROCK;IGNEOUS:VOLCANIC:MAFIC;BASALT;;;;;;;;;;;;;;;;;;;;;;;;;;;;;;;;;;;;;;;;;;;;;;;;;;;;;;;;;;;;;;;;;;;;;;;;;;20;ppm;INAA;42;ppm;INAA;23;ppm;INAA;;;;87;ppm;INAA;;;;;;;;;;;;;;;;;;;;;;;;;;;;;;;;;;;;;;;;;;;;;;;;;;;;;;;;;;;;;;;;;;;;;;;;;;;;;;;;;;;;;;;;;;;;;;;;;;;;;;;;;;;;;;;;;;;;;;;;;;;;;;;;;;;;;;;;;;;;;;;;;;;;;;;;;;;;;;;;;;;;;;;;;;;;;;;;;;;;;;;;;;;;;;;;;;;;;;;;;;;;;;;;;;;83;ppm;INAA;;;;;;;;;;;;;42;ppm;INAA;56;ppm;INAA;;;;23;ppm;INAA;17;ppm;INAA;;;;;;;;;;;;;;;;17;ppm;INAA;;;;;;;;;;6;ppm;INAA;20;ppm;INAA;;;;;;;4,7;ppm;INAA;;;;;;;2,5;ppm;INAA;;;;;;;;;;;;;;;;40;ppm;INAA;;;;250;ppm;INAA;;;;;;;;;;;;;;;;290;ppm;INAA;;;;;;;87;ppm;INAA;85;ppm;INAA;;;;;;;;;;;;;;;;;;;;;;;;;;;;;;;;;;;;;;;;;;;;;;;;
GOTT-CAMP-CC2-889;;GOTTFRIED-CC;GOTTFRIED , 1983;33;-80,15;1;;;CONTINENTAL_RIFT;;;;INAA;WHOLE ROCK;IGNEOUS:VOLCANIC:MAFIC;BASALT;;;;;;;;;;;;;;;;;;;;;;;;;;;;;;;;;;;;;;;;;;;;;;;;;;;;;;;;;;;;;;;;;;;;;;;;;;25;ppm;INAA;45;ppm;INAA;22;ppm;INAA;;;;79;ppm;INAA;;;;;;;;;;;;;;;;;;;;;;;;;;;;;;;;;;;;;;;;;;;;;;;;;;;;;;;;;;;;;;;;;;;;;;;;;;;;;;;;;;;;;;;;;;;;;;;;;;;;;;;;;;;;;;;;;;;;;;;;;;;;;;;;;;;;;;;;;;;;;;;;;;;;;;;;;;;;;;;;;;;;;;;;;;;;;;;;;;;;;;;;;;;;;;;;;;;;;;;;;;;;;;;;;;;7;ppm;INAA;;;;;;;;;;;;;45;ppm;INAA;62;ppm;INAA;;;;22;ppm;INAA;18;ppm;INAA;;;;;;;;;;;;;;;;8,1;ppm;INAA;;;;;;;;;;6,7;ppm;INAA;25;ppm;INAA;;;;;;;5,1;ppm;INAA;;;;;;;1,1;ppm;INAA;;;;;;;;;;;;;;;;39;ppm;INAA;;;;95;ppm;INAA;;;;;;;;;;;;;;;;300;ppm;INAA;;;;;;;79;ppm;INAA;84;ppm;INAA;;;;;;;;;;;;;;;;;;;;;;;;;;;;;;;;;;;;;;;;;;;;;;;;
GOTT-CAMP-CC2-899;;GOTTFRIED-CC;GOTTFRIED , 1983;33;-80,15;1;;;CONTINENTAL_RIFT;;;;INAA;WHOLE ROCK;IGNEOUS:VOLCANIC:MAFIC;BASALT;;;;;;;;;;;;;;;;;;;;;;;;;;;;;;;;;;;;;;;;;;;;;;;;;;;;;;;;;;;;;;;;;;;;;;;;;;24;ppm;INAA;49;ppm;INAA;24;ppm;INAA;;;;89;ppm;INAA;;;;;;;;;;;;;;;;;;;;;;;;;;;;;;;;;;;;;;;;;;;;;;;;;;;;;;;;;;;;;;;;;;;;;;;;;;;;;;;;;;;;;;;;;;;;;;;;;;;;;;;;;;;;;;;;;;;;;;;;;;;;;;;;;;;;;;;;;;;;;;;;;;;;;;;;;;;;;;;;;;;;;;;;;;;;;;;;;;;;;;;;;;;;;;;;;;;;;;;;;;;;;;;;;;;91;ppm;INAA;;;;;;;;;;;;;49;ppm;INAA;71;ppm;INAA;;;;24;ppm;INAA;18;ppm;INAA;;;;;;;;;;;;;;;;6,6;ppm;INAA;;;;;;;;;;6,1;ppm;INAA;24;ppm;INAA;;;;;;;5,5;ppm;INAA;;;;;;;1,6;ppm;INAA;;;;;;;;;;;;;;;;41;ppm;INAA;;;;200;ppm;INAA;;;;;;;;;;;;;;;;300;ppm;INAA;;;;;;;89;ppm;INAA;89;ppm;INAA;;;;;;;;;;;;;;;;;;;;;;;;;;;;;;;;;;;;;;;;;;;;;;;;
GOTT-CAMP-CC2-905;;GOTTFRIED-CC;GOTTFRIED , 1983;33;-80,15;1;;;CONTINENTAL_RIFT;;;;INAA;WHOLE ROCK;IGNEOUS:VOLCANIC:MAFIC;BASALT;;;;;;;;;;;;;;;;;;;;;;;;;;;;;;;;;;;;;;;;;;;;;;;;;;;;;;;;;;;;;;;;;;;;;;;;;;31;ppm;INAA;49;ppm;INAA;38;ppm;INAA;;;;93;ppm;INAA;;;;;;;;;;;;;;;;;;;;;;;;;;;;;;;;;;;;;;;;;;;;;;;;;;;;;;;;;;;;;;;;;;;;;;;;;;;;;;;;;;;;;;;;;;;;;;;;;;;;;;;;;;;;;;;;;;;;;;;;;;;;;;;;;;;;;;;;;;;;;;;;;;;;;;;;;;;;;;;;;;;;;;;;;;;;;;;;;;;;;;;;;;;;;;;;;;;;;;;;;;;;;;;;;;;150;ppm;INAA;;;;;;;;;;;;;49;ppm;INAA;130;ppm;INAA;;;;38;ppm;INAA;18;ppm;INAA;;;;;;;;;;;;;;;;2,7;ppm;INAA;;;;;;;;;;6,3;ppm;INAA;31;ppm;INAA;;;;;;;4,5;ppm;INAA;;;;;;;18;ppm;INAA;;;;;;;;;;;;;;;;42;ppm;INAA;;;;190;ppm;INAA;;;;;;;;;;;;;;;;300;ppm;INAA;;;;;;;93;ppm;INAA;90;ppm;INAA;;;;;;;;;;;;;;;;;;;;;;;;;;;;;;;;;;;;;;;;;;;;;;;;
GOTT-CAMP-CC2-908;;GOTTFRIED-CC;GOTTFRIED , 1983;33;-80,15;1;;;CONTINENTAL_RIFT;;;;"ENAA; ES; INAA; Unknown";WHOLE ROCK;IGNEOUS:VOLCANIC:MAFIC;BASALT;;53;wt%;Unknown;1,1;wt%;Unknown;14,5;wt%;Unknown;;;;2,2;wt%;Unknown;;;;8,6;wt%;Unknown;;;;;;;0,17;wt%;Unknown;6,3;wt%;Unknown;10,2;wt%;Unknown;;;;2,3;wt%;Unknown;0,23;wt%;Unknown;0,14;wt%;Unknown;;;;;;;;;;0,64;wt%;Unknown;1,2;wt%;Unknown;;;;;;;;;;34;ppm;INAA;54;ppm;INAA;43;ppm;INAA;;;;82;ppm;INAA;;;;;;;;;;;;;;;;74000;ppm;INAA;;;;;;;;;;;;;;;;;;;;;;;;;;;;;;;;;;;;;;;;;;;;;;;;;;;;;;;;;;;;;;;;;;;;;;;;;;;;;;;;;;;;;;;;;;;;;;;;;;;;;;;;;;;;;;;;9;ppm;ENAA;17;ppm;ENAA;;;;9;ppm;ENAA;3,1;ppm;ENAA;0,94;ppm;ENAA;3,2;ppm;ENAA;0,86;ppm;ENAA;;;;0,7;ppm;ENAA;;;;0,34;ppm;ENAA;2,8;ppm;ENAA;0,44;ppm;ENAA;0,01;wt%;Unknown;;;;;;;;;;;;;;;;;;;;;;;;;;;;;;;;;;;;;130;ppm;INAA;;;;;;;74000;ppm;INAA;;;;54;ppm;INAA;170;ppm;INAA;;;;43;ppm;INAA;18;ppm;INAA;;;;2;ppm;ENAA;;;;;;;1900;ppm;INAA;1,8;ppm;INAA;;;;;;;;;;5,9;ppm;INAA;34;ppm;INAA;;;;;;;3,8;ppm;INAA;;;;;;;17;ppm;INAA;;;;;;;;;;;;;;;;43;ppm;INAA;;;;180;ppm;INAA;0,39;ppm;ENAA;1,5;ppm;ENAA;;;;;;;0,5;ppm;ENAA;300;ppm;INAA;;;;29;ppm;ES;82;ppm;INAA;89;ppm;INAA;;;;;;;;;;;;;;;;;;;;;;;;;;;;;;;;;;0,64;wt%;Unknown;1,2;wt%;Unknown;0,64;wt%;Unknown;1,2;wt%;Unknown;;;
GOTT-CAMP-CC3-1002.2;;GOTTFRIED-CC;GOTTFRIED , 1983;33;-80,15;1;;;CONTINENTAL_RIFT;;;;"ENAA; ES; INAA; Unknown";WHOLE ROCK;IGNEOUS:VOLCANIC:MAFIC;BASALT;;52,2;wt%;Unknown;0,96;wt%;Unknown;13,8;wt%;Unknown;;;;2,4;wt%;Unknown;;;;9,7;wt%;Unknown;;;;;;;0,22;wt%;Unknown;5,9;wt%;Unknown;9,7;wt%;Unknown;;;;2,5;wt%;Unknown;0,64;wt%;Unknown;0,16;wt%;Unknown;;;;;;;;;;0,34;wt%;Unknown;1,3;wt%;Unknown;;;;;;;;;;27;ppm;INAA;42;ppm;INAA;73;ppm;INAA;;;;94;ppm;INAA;;;;;;;;;;;;;;;;70000;ppm;INAA;;;;;;;;;;;;;;;;;;;;;;;;;;;;;;;;;;;;;;;;;;;;;;;;;;;;;;;;;;;;;;;;;;;;;;;;;;;;;;;;;;;;;;;;;;;;;;;;;;;;;;;;;;;;;;;;11;ppm;ENAA;24;ppm;ENAA;;;;13;ppm;ENAA;3,5;ppm;ENAA;1,18;ppm;ENAA;;;;0,79;ppm;ENAA;;;;0,8;ppm;ENAA;;;;;;;3;ppm;ENAA;0,43;ppm;ENAA;0,24;wt%;Unknown;;;;;;;;;;;;;;;;;;;;;;;;;;;;;;;;;;;;;180;ppm;INAA;;;;;;;70000;ppm;INAA;;;;42;ppm;INAA;25;ppm;INAA;;;;73;ppm;INAA;17;ppm;INAA;;;;2,4;ppm;ENAA;;;;;;;5400;ppm;INAA;19;ppm;INAA;;;;;;;;;;5,6;ppm;INAA;27;ppm;INAA;;;;;;;7;ppm;INAA;;;;;;;19;ppm;INAA;;;;;;;;;;;;;;;;39;ppm;INAA;;;;240;ppm;INAA;0,36;ppm;ENAA;2,2;ppm;ENAA;;;;;;;0,7;ppm;ENAA;330;ppm;INAA;;;;28;ppm;ES;94;ppm;INAA;110;ppm;INAA;;;;;;;;;;;;;;;;;;;;;;;;;;;;;;;;;;0,34;wt%;Unknown;1,3;wt%;Unknown;0,34;wt%;Unknown;1,3;wt%;Unknown;;;
GOTT-CAMP-CC3-1014;;GOTTFRIED-CC;GOTTFRIED , 1983;33;-80,15;1;;;CONTINENTAL_RIFT;;;;"ENAA; ES; INAA; Unknown";WHOLE ROCK;IGNEOUS:VOLCANIC:MAFIC;BASALT;;53,7;wt%;Unknown;1,1;wt%;Unknown;14,1;wt%;Unknown;;;;3,7;wt%;Unknown;;;;8,3;wt%;Unknown;;;;;;;0,21;wt%;Unknown;5,3;wt%;Unknown;9,3;wt%;Unknown;;;;2,6;wt%;Unknown;0,74;wt%;Unknown;0,18;wt%;Unknown;;;;;;;;;;0,53;wt%;Unknown;0,52;wt%;Unknown;;;;;;;;;;35;ppm;INAA;42;ppm;INAA;64;ppm;INAA;;;;110;ppm;INAA;;;;;;;;;;;;;;;;67000;ppm;INAA;;;;;;;;;;;;;;;;;;;;;;;;;;;;;;;;;;;;;;;;;;;;;;;;;;;;;;;;;;;;;;;;;;;;;;;;;;;;;;;;;;;;;;;;;;;;;;;;;;;;;;;;;;;;;;;;11;ppm;ENAA;26;ppm;ENAA;;;;15;ppm;ENAA;3,6;ppm;ENAA;1,06;ppm;ENAA;;;;0,69;ppm;ENAA;;;;0,9;ppm;ENAA;;;;;;;2,9;ppm;ENAA;0,43;ppm;ENAA;0,14;wt%;Unknown;;;;;;;;;;;;;;;;;;;;;;;;;;;;;;;;;;;;;210;ppm;INAA;;;;;;;67000;ppm;INAA;;;;42;ppm;INAA;36;ppm;INAA;;;;64;ppm;INAA;16;ppm;INAA;;;;2,3;ppm;ENAA;;;;;;;6100;ppm;INAA;13;ppm;INAA;;;;;;;;;;6,4;ppm;INAA;35;ppm;INAA;;;;;;;6,6;ppm;INAA;;;;;;;27;ppm;INAA;;;;;;;;;;;;;;;;43;ppm;INAA;;;;220;ppm;INAA;0,37;ppm;ENAA;2,2;ppm;ENAA;;;;;;;0,7;ppm;ENAA;300;ppm;INAA;;;;29;ppm;ES;110;ppm;INAA;94;ppm;INAA;;;;;;;;;;;;;;;;;;;;;;;;;;;;;;;;;;0,53;wt%;Unknown;0,52;wt%;Unknown;0,53;wt%;Unknown;0,52;wt%;Unknown;;;
GOTT-CAMP-CC3-1020.4;;GOTTFRIED-CC;GOTTFRIED , 1983;33;-80,15;1;;;CONTINENTAL_RIFT;;;;"ENAA; ES; INAA; Unknown";WHOLE ROCK;IGNEOUS:VOLCANIC:MAFIC;BASALT;;52,8;wt%;Unknown;1,1;wt%;Unknown;14,3;wt%;Unknown;;;;2,9;wt%;Unknown;;;;8,4;wt%;Unknown;;;;;;;0,21;wt%;Unknown;5,7;wt%;Unknown;9,2;wt%;Unknown;;;;3,3;wt%;Unknown;0,34;wt%;Unknown;0,18;wt%;Unknown;;;;;;;;;;0,99;wt%;Unknown;1,4;wt%;Unknown;;;;;;;;;;37;ppm;INAA;48;ppm;INAA;82;ppm;INAA;;;;91;ppm;INAA;;;;;;;;;;;;;;;;67000;ppm;INAA;;;;;;;;;;;;;;;;;;;;;;;;;;;;;;;;;;;;;;;;;;;;;;;;;;;;;;;;;;;;;;;;;;;;;;;;;;;;;;;;;;;;;;;;;;;;;;;;;;;;;;;;;;;;;;;;11;ppm;ENAA;32;ppm;ENAA;;;;13;ppm;ENAA;3,5;ppm;ENAA;1,2;ppm;ENAA;;;;0,81;ppm;ENAA;;;;0,8;ppm;ENAA;;;;;;;3;ppm;ENAA;0,43;ppm;ENAA;0,02;wt%;Unknown;;;;;;;;;;;;;;;;;;;;;;;;;;;;;;;;;;;;;200;ppm;INAA;;;;;;;67000;ppm;INAA;;;;48;ppm;INAA;27;ppm;INAA;;;;82;ppm;INAA;15;ppm;INAA;;;;2,4;ppm;ENAA;;;;;;;2900;ppm;INAA;12;ppm;INAA;;;;;;;;;;5,9;ppm;INAA;37;ppm;INAA;;;;;;;5,1;ppm;INAA;;;;;;;7,5;ppm;INAA;;;;;;;;;;;;;;;;42;ppm;INAA;;;;310;ppm;INAA;0,39;ppm;ENAA;2,1;ppm;ENAA;;;;;;;0,7;ppm;ENAA;290;ppm;INAA;;;;29;ppm;ES;91;ppm;INAA;94;ppm;INAA;;;;;;;;;;;;;;;;;;;;;;;;;;;;;;;;;;0,99;wt%;Unknown;1,4;wt%;Unknown;0,99;wt%;Unknown;1,4;wt%;Unknown;;;