SAMPLE ID;IGSN;EXPEDITION ID;REFERENCES;LATITUDE;LONGITUDE;LOC PREC;MIN ELEVATION;MAX ELEVATION;TECTONIC SETTING;MIN AGE;AGE;MAX AGE;METHOD;ANALYZED MATERIAL;ROCK TYPE;ROCK NAME;MINERAL;SIO2;SIO2 Units;SIO2 Method;TIO2;TIO2 Units;TIO2 Method;AL2O3;AL2O3 Units;AL2O3 Method;CR2O3;CR2O3 Units;CR2O3 Method;FE2O3;FE2O3 Units;FE2O3 Method;FE2O3T;FE2O3T Units;FE2O3T Method;FEO;FEO Units;FEO Method;FEOT;FEOT Units;FEOT Method;NIO;NIO Units;NIO Method;MNO;MNO Units;MNO Method;MGO;MGO Units;MGO Method;CAO;CAO Units;CAO Method;SRO;SRO Units;SRO Method;NA2O;NA2O Units;NA2O Method;K2O;K2O Units;K2O Method;P2O5;P2O5 Units;P2O5 Method;BAO;BAO Units;BAO Method;LOI;LOI Units;LOI Method;H2O;H2O Units;H2O Method;H2O_M;H2O_M Units;H2O_M Method;H2O_P;H2O_P Units;H2O_P Method;SO3;SO3 Units;SO3 Method;COO;COO Units;COO Method;MN;MN Units;MN Method;NI;NI Units;NI Method;CO;CO Units;CO Method;CU;CU Units;CU Method;CD;CD Units;CD Method;ZN;ZN Units;ZN Method;AS;AS Units;AS Method;AG;AG Units;AG Method;S;S Units;S Method;ZRO2;ZRO2 Units;ZRO2 Method;AL;AL Units;AL Method;CA;CA Units;CA Method;SR87_SR86;SR87_SR86 Units;SR87_SR86 Method;SR87_SR86_INI;SR87_SR86_INI Units;SR87_SR86_INI Method;RB87_SR86;RB87_SR86 Units;RB87_SR86 Method;ND143_ND144;ND143_ND144 Units;ND143_ND144 Method;ND143_ND144_INI;ND143_ND144_INI Units;ND143_ND144_INI Method;SM147_ND144;SM147_ND144 Units;SM147_ND144 Method;E_ND;E_ND Units;E_ND Method;E_ND_INI;E_ND_INI Units;E_ND_INI Method;PB204_PB206;PB204_PB206 Units;PB204_PB206 Method;PB206_PB204;PB206_PB204 Units;PB206_PB204 Method;PB206_PB204_INI;PB206_PB204_INI Units;PB206_PB204_INI Method;PB207_PB204;PB207_PB204 Units;PB207_PB204 Method;PB207_PB204_INI;PB207_PB204_INI Units;PB207_PB204_INI Method;PB207_PB206;PB207_PB206 Units;PB207_PB206 Method;PB208_PB204;PB208_PB204 Units;PB208_PB204 Method;PB208_PB204_INI;PB208_PB204_INI Units;PB208_PB204_INI Method;PB208_PB206;PB208_PB206 Units;PB208_PB206 Method;HF176_HF177;HF176_HF177 Units;HF176_HF177 Method;RE187_OS188;RE187_OS188 Units;RE187_OS188 Method;OS187_OS188;OS187_OS188 Units;OS187_OS188 Method;OS187_OS188_INI;OS187_OS188_INI Units;OS187_OS188_INI Method;G_OS;G_OS Units;G_OS Method;G_OS_INI;G_OS_INI Units;G_OS_INI Method;ND143_ND144_INI;ND143_ND144_INI Units;ND143_ND144_INI Method;PB206_PB204_INI;PB206_PB204_INI Units;PB206_PB204_INI Method;PB207_PB204_INI;PB207_PB204_INI Units;PB207_PB204_INI Method;PB208_PB204_INI;PB208_PB204_INI Units;PB208_PB204_INI Method;SR87_SR86_INI;SR87_SR86_INI Units;SR87_SR86_INI Method;HE;HE Units;HE Method;HE3;HE3 Units;HE3 Method;HE3_HE4_R_RA;HE3_HE4_R_RA Units;HE3_HE4_R_RA Method;AR36;AR36 Units;AR36 Method;AR40;AR40 Units;AR40 Method;AR40_AR36;AR40_AR36 Units;AR40_AR36 Method;NE20;NE20 Units;NE20 Method;NE20_NE22;NE20_NE22 Units;NE20_NE22 Method;NE21_NE22;NE21_NE22 Units;NE21_NE22 Method;LA;LA Units;LA Method;CE;CE Units;CE Method;PR;PR Units;PR Method;ND;ND Units;ND Method;SM;SM Units;SM Method;EU;EU Units;EU Method;GD;GD Units;GD Method;TB;TB Units;TB Method;DY;DY Units;DY Method;HO;HO Units;HO Method;ER;ER Units;ER Method;TM;TM Units;TM Method;YB;YB Units;YB Method;LU;LU Units;LU Method;CO2;CO2 Units;CO2 Method;F;F Units;F Method;CL;CL Units;CL Method;U238_PB204;U238_PB204 Units;U238_PB204 Method;TH230_TH232;TH230_TH232 Units;TH230_TH232 Method;RA226_ACTIVITY;RA226_ACTIVITY Units;RA226_ACTIVITY Method;PB210_RA226;PB210_RA226 Units;PB210_RA226 Method;PB210_ACTIVITY;PB210_ACTIVITY Units;PB210_ACTIVITY Method;AG;AG Units;AG Method;AL;AL Units;AL Method;AS;AS Units;AS Method;AU;AU Units;AU Method;B;B Units;B Method;BA;BA Units;BA Method;BE;BE Units;BE Method;BI;BI Units;BI Method;CA;CA Units;CA Method;CD;CD Units;CD Method;CO;CO Units;CO Method;CR;CR Units;CR Method;CS;CS Units;CS Method;CU;CU Units;CU Method;GA;GA Units;GA Method;GER;GER Units;GER Method;HF;HF Units;HF Method;INDIUM;INDIUM Units;INDIUM Method;IR;IR Units;IR Method;K;K Units;K Method;LI;LI Units;LI Method;MN;MN Units;MN Method;MO;MO Units;MO Method;NA;NA Units;NA Method;NB;NB Units;NB Method;NI;NI Units;NI Method;OS;OS Units;OS Method;P;P Units;P Method;PB;PB Units;PB Method;PD;PD Units;PD Method;PT;PT Units;PT Method;RB;RB Units;RB Method;RE;RE Units;RE Method;RH;RH Units;RH Method;RU;RU Units;RU Method;S;S Units;S Method;SB;SB Units;SB Method;SC;SC Units;SC Method;SN;SN Units;SN Method;SR;SR Units;SR Method;TA;TA Units;TA Method;TH;TH Units;TH Method;TI;TI Units;TI Method;TL;TL Units;TL Method;U;U Units;U Method;V;V Units;V Method;W;W Units;W Method;Y;Y Units;Y Method;ZN;ZN Units;ZN Method;ZR;ZR Units;ZR Method;DELTA_O18;DELTA_O18 Units;DELTA_O18 Method;DELTA_C13;DELTA_C13 Units;DELTA_C13 Method;DELTA_MO98;DELTA_MO98 Units;DELTA_MO98 Method;DELTA_ZN66;DELTA_ZN66 Units;DELTA_ZN66 Method;DELTA_ZN68;DELTA_ZN68 Units;DELTA_ZN68 Method;OS188;OS188 Units;OS188 Method;FE3P_FET;FE3P_FET Units;FE3P_FET Method;TI;TI Units;TI Method;AS;AS Units;AS Method;AS;AS Units;AS Method;GER;GER Units;GER Method;H2O_M;H2O_M Units;H2O_M Method;H2O_P;H2O_P Units;H2O_P Method;H2O_M;H2O_M Units;H2O_M Method;H2O_P;H2O_P Units;H2O_P Method;INDIUM;INDIUM Units;INDIUM Method
GROSCAMP-W-245383;;GROSSMAN-CAMP;GROSSMAN, 1991;40,2;-76,8722;0,001;;;CONTINENTAL_RIFT;;;;"AAS; COL; ICPMS; INAA; TITR; Unknown";WHOLE ROCK;IGNEOUS:VOLCANIC:MAFIC;DIABASE;;52,5;wt%;COL;0,84;wt%;COL;13,2;wt%;COL;;;;1,68;wt%;Unknown;;;;8;wt%;TITR;;;;;;;0,18;wt%;AAS;9,65;wt%;AAS;11,6;wt%;Unknown;;;;1,82;wt%;Unknown;0,43;wt%;AAS;0,1;wt%;COL;;;;;;;;;;0,05;wt%;TITR;0,47;wt%;TITR;;;;;;;;;;120;ppm;Unknown;48;ppm;Unknown;80;ppm;Unknown;;;;66;ppm;Unknown;1,7;ppm;INAA;;;;;;;;;;;;;;;;;;;;;;;;;;;;;;;;;;;;;;;;;;;;;;;;;;;;;;;;;;;;;;;;;;;;;;;;;;;;;;;;;;;;;;;;;;;;;;;;;;;;;;;;;;;;;;;;;;;;;;;;;;;;;;;8;ppm;INAA;18;ppm;INAA;;;;8,6;ppm;INAA;2,64;ppm;INAA;0,81;ppm;INAA;;;;0,47;ppm;INAA;;;;;;;;;;;;;1,7;ppm;INAA;0,24;ppm;INAA;;;;;;;;;;;;;;;;;;;;;;;;;;;;;;;1,7;ppm;INAA;;;;;;;135;ppm;Unknown;;;;;;;;;;;;;48;ppm;Unknown;450;ppm;Unknown;0,71;ppm;INAA;80;ppm;Unknown;;;;;;;1,6;ppm;INAA;;;;0,5;ppm;ICPMS;;;;;;;;;;;;;;;;;;;120;ppm;Unknown;;;;;;;;;;5,6;ppm;Unknown;12;ppm;Unknown;18;ppm;Unknown;;;;0,6;ppm;Unknown;;;;;;;;;;37;ppm;INAA;;;;178;ppm;Unknown;0,36;ppm;INAA;1,6;ppm;INAA;;;;;;;0,27;ppm;INAA;;;;;;;;;;66;ppm;Unknown;72;ppm;Unknown;;;;;;;;;;;;;;;;;;;;;;;;;1,7;ppm;INAA;1,7;ppm;INAA;;;;0,05;wt%;TITR;0,47;wt%;TITR;0,05;wt%;TITR;0,47;wt%;TITR;;;
GROSCAMP-W-245384;;GROSSMAN-CAMP;GROSSMAN, 1991;40,2;-76,8722;0,001;;;CONTINENTAL_RIFT;;;;"AAS; COL; ICPMS; INAA; TITR; Unknown";WHOLE ROCK;IGNEOUS:VOLCANIC:MAFIC;DIABASE;;52,4;wt%;COL;0,84;wt%;COL;11,3;wt%;COL;;;;1,44;wt%;Unknown;;;;9;wt%;TITR;;;;;;;0,2;wt%;AAS;11,2;wt%;AAS;11,3;wt%;Unknown;;;;1,56;wt%;Unknown;0,39;wt%;AAS;0,09;wt%;COL;;;;;;;;;;0,03;wt%;TITR;0,47;wt%;TITR;;;;;;;;;;134;ppm;Unknown;54;ppm;Unknown;62;ppm;Unknown;;;;56;ppm;Unknown;;;;;;;;;;;;;;;;;;;;;;;;;;;;;;;;;;;;;;;;;;;;;;;;;;;;;;;;;;;;;;;;;;;;;;;;;;;;;;;;;;;;;;;;;;;;;;;;;;;;;;;;;;;;;;;;;;;;;;;;;;;;;;;;;;7,5;ppm;INAA;16;ppm;INAA;;;;8,6;ppm;INAA;2,56;ppm;INAA;0,76;ppm;INAA;;;;0,43;ppm;INAA;;;;;;;;;;;;;1,6;ppm;INAA;0,25;ppm;INAA;;;;;;;;;;;;;;;;;;;;;;;;;;;;;;;;;;;;;;;;113;ppm;Unknown;;;;;;;;;;;;;54;ppm;Unknown;580;ppm;Unknown;0,58;ppm;INAA;62;ppm;Unknown;;;;;;;1,8;ppm;INAA;;;;0,7;ppm;ICPMS;;;;;;;;;;;;;;;;;;;134;ppm;Unknown;;;;;;;;;;6;ppm;Unknown;16;ppm;Unknown;19;ppm;Unknown;;;;0,8;ppm;Unknown;;;;;;;;;;41;ppm;INAA;;;;150;ppm;Unknown;0,37;ppm;INAA;1,4;ppm;INAA;;;;;;;0,38;ppm;INAA;;;;;;;;;;56;ppm;Unknown;75;ppm;Unknown;;;;;;;;;;;;;;;;;;;;;;;;;;;;;;;;;;0,03;wt%;TITR;0,47;wt%;TITR;0,03;wt%;TITR;0,47;wt%;TITR;;;
GROSCAMP-W-245385;;GROSSMAN-CAMP;GROSSMAN, 1991;40,2;-76,8722;0,001;;;CONTINENTAL_RIFT;;;;"AAS; COL; ICPMS; INAA; TITR; Unknown";WHOLE ROCK;IGNEOUS:VOLCANIC:MAFIC;DIABASE;;52,6;wt%;COL;0,84;wt%;COL;12,7;wt%;COL;;;;1,69;wt%;Unknown;;;;8,3;wt%;TITR;;;;;;;0,19;wt%;AAS;9,76;wt%;AAS;11,6;wt%;Unknown;;;;1,82;wt%;Unknown;0,46;wt%;AAS;0,1;wt%;COL;;;;;;;;;;0,1;wt%;TITR;0,3;wt%;TITR;;;;;;;;;;117;ppm;Unknown;50;ppm;Unknown;74;ppm;Unknown;;;;67;ppm;Unknown;;;;;;;;;;;;;;;;;;;;;;;;;;;;;;;;;;;;;;;;;;;;;;;;;;;;;;;;;;;;;;;;;;;;;;;;;;;;;;;;;;;;;;;;;;;;;;;;;;;;;;;;;;;;;;;;;;;;;;;;;;;;;;;;;;8,1;ppm;INAA;18;ppm;INAA;;;;9,4;ppm;INAA;2,67;ppm;INAA;0,82;ppm;INAA;;;;0,48;ppm;INAA;;;;;;;;;;;;;1,7;ppm;INAA;0,27;ppm;INAA;;;;;;;;;;;;;;;;;;;;;;;;;;;;;;;;;;;;;;;;134;ppm;Unknown;;;;;;;;;;;;;50;ppm;Unknown;430;ppm;Unknown;0,83;ppm;INAA;74;ppm;Unknown;;;;;;;1,9;ppm;INAA;;;;0,5;ppm;ICPMS;;;;;;;;;;;;;;;;;;;117;ppm;Unknown;;;;;;;;;;7,6;ppm;Unknown;13;ppm;Unknown;22;ppm;Unknown;;;;0,6;ppm;Unknown;;;;;;;;;;38;ppm;INAA;;;;171;ppm;Unknown;0,35;ppm;INAA;1,6;ppm;INAA;;;;;;;0,27;ppm;INAA;;;;;;;;;;67;ppm;Unknown;78;ppm;Unknown;;;;;;;;;;;;;;;;;;;;;;;;;;;;;;;;;;0,1;wt%;TITR;0,3;wt%;TITR;0,1;wt%;TITR;0,3;wt%;TITR;;;
GROSCAMP-W-245386;;GROSSMAN-CAMP;GROSSMAN, 1991;40,2;-76,8722;0,001;;;CONTINENTAL_RIFT;;;;"AAS; COL; ICPMS; INAA; TITR; Unknown";WHOLE ROCK;IGNEOUS:VOLCANIC:MAFIC;DIABASE;;52,2;wt%;COL;0,72;wt%;COL;13,3;wt%;COL;;;;1,39;wt%;Unknown;;;;7,5;wt%;TITR;;;;;;;0,17;wt%;AAS;10,2;wt%;AAS;12,1;wt%;Unknown;;;;1,75;wt%;Unknown;0,36;wt%;AAS;0,08;wt%;COL;;;;;;;;;;0,1;wt%;TITR;0,3;wt%;TITR;;;;;;;;;;118;ppm;Unknown;46;ppm;Unknown;61;ppm;Unknown;;;;52;ppm;Unknown;;;;;;;;;;;;;;;;;;;;;;;;;;;;;;;;;;;;;;;;;;;;;;;;;;;;;;;;;;;;;;;;;;;;;;;;;;;;;;;;;;;;;;;;;;;;;;;;;;;;;;;;;;;;;;;;;;;;;;;;;;;;;;;;;;6,6;ppm;INAA;14;ppm;INAA;;;;6,7;ppm;INAA;2,21;ppm;INAA;0,76;ppm;INAA;;;;0,4;ppm;INAA;;;;;;;;;;;;;1,4;ppm;INAA;0,22;ppm;INAA;;;;;;;;;;;;;;;;;;;;;;;;;;;;;;;;;;;;;;;;114;ppm;Unknown;;;;;;;;;;;;;46;ppm;Unknown;490;ppm;Unknown;0,49;ppm;INAA;61;ppm;Unknown;;;;;;;1,4;ppm;INAA;;;;0,7;ppm;ICPMS;;;;;;;;;;;;;;;;;;;118;ppm;Unknown;;;;;;;;;;5;ppm;Unknown;16;ppm;Unknown;10;ppm;Unknown;;;;0,7;ppm;Unknown;;;;;;;;;;36;ppm;INAA;;;;183;ppm;Unknown;0,33;ppm;INAA;1,3;ppm;INAA;;;;;;;0,3;ppm;INAA;;;;;;;;;;52;ppm;Unknown;65;ppm;Unknown;;;;;;;;;;;;;;;;;;;;;;;;;;;;;;;;;;0,1;wt%;TITR;0,3;wt%;TITR;0,1;wt%;TITR;0,3;wt%;TITR;;;
GROSCAMP-W-245387;;GROSSMAN-CAMP;GROSSMAN, 1991;40,2;-76,8722;0,001;;;CONTINENTAL_RIFT;;;;"AAS; COL; ICPMS; INAA; TITR; Unknown";WHOLE ROCK;IGNEOUS:VOLCANIC:MAFIC;DIABASE;;52,5;wt%;COL;0,8;wt%;COL;12,5;wt%;COL;;;;1,59;wt%;Unknown;;;;8;wt%;TITR;;;;;;;0,17;wt%;AAS;10,6;wt%;AAS;11,7;wt%;Unknown;;;;1,68;wt%;Unknown;0,4;wt%;AAS;0,1;wt%;COL;;;;;;;;;;0,11;wt%;TITR;0,23;wt%;TITR;;;;;;;;;;142;ppm;Unknown;51;ppm;Unknown;67;ppm;Unknown;;;;59;ppm;Unknown;;;;;;;;;;;;;;;;;;;;;;;;;;;;;;;;;;;;;;;;;;;;;;;;;;;;;;;;;;;;;;;;;;;;;;;;;;;;;;;;;;;;;;;;;;;;;;;;;;;;;;;;;;;;;;;;;;;;;;;;;;;;;;;;;;7,4;ppm;INAA;16;ppm;INAA;;;;7,3;ppm;INAA;2,5;ppm;INAA;0,82;ppm;INAA;;;;0,44;ppm;INAA;;;;;;;;;;;;;1,5;ppm;INAA;0,21;ppm;INAA;0,01;ppm;TITR;;;;;;;;;;;;;;;;;;;;;;;;;;;;;;;;;;;;;115;ppm;Unknown;;;;;;;;;;;;;51;ppm;Unknown;600;ppm;Unknown;0,58;ppm;INAA;67;ppm;Unknown;;;;;;;1,7;ppm;INAA;;;;1,1;ppm;ICPMS;;;;;;;;;;;;;;;;;;;142;ppm;Unknown;;;;;;;;;;3,9;ppm;Unknown;19;ppm;Unknown;15;ppm;Unknown;;;;0,8;ppm;Unknown;;;;;;;;;;40;ppm;INAA;;;;164;ppm;Unknown;0,39;ppm;INAA;1,4;ppm;INAA;;;;;;;0,23;ppm;INAA;;;;;;;;;;59;ppm;Unknown;67;ppm;Unknown;;;;;;;;;;;;;;;;;;;;;;;;;;;;;;;;;;0,11;wt%;TITR;0,23;wt%;TITR;0,11;wt%;TITR;0,23;wt%;TITR;;;
GROSCAMP-W-245388;;GROSSMAN-CAMP;GROSSMAN, 1991;40,2;-76,8722;0,001;;;CONTINENTAL_RIFT;;;;"AAS; COL; ICPMS; INAA; TITR; Unknown";WHOLE ROCK;IGNEOUS:VOLCANIC:MAFIC;DIABASE;;52,4;wt%;COL;0,66;wt%;COL;12,9;wt%;COL;;;;1,56;wt%;Unknown;;;;7,8;wt%;TITR;;;;;;;0,17;wt%;AAS;10,8;wt%;AAS;12,3;wt%;Unknown;;;;1,5;wt%;Unknown;0,32;wt%;AAS;0,07;wt%;COL;;;;;;;;;;0,06;wt%;TITR;0,33;wt%;TITR;;;;;;;;;;130;ppm;Unknown;52;ppm;Unknown;32;ppm;Unknown;;;;47;ppm;Unknown;;;;;;;;;;;;;;;;;;;;;;;;;;;;;;;;;;;;;;;;;;;;;;;;;;;;;;;;;;;;;;;;;;;;;;;;;;;;;;;;;;;;;;;;;;;;;;;;;;;;;;;;;;;;;;;;;;;;;;;;;;;;;;;;;;5,7;ppm;INAA;14;ppm;INAA;;;;7,9;ppm;INAA;2,1;ppm;INAA;0,71;ppm;INAA;;;;0,39;ppm;INAA;;;;;;;;;;;;;1,5;ppm;INAA;0,2;ppm;INAA;0,01;ppm;TITR;;;;;;;;;;;;;;;;;;;;;;;;;;;;;;;;;;;;;83;ppm;Unknown;;;;;;;;;;;;;52;ppm;Unknown;550;ppm;Unknown;0,33;ppm;INAA;32;ppm;Unknown;;;;;;;1,3;ppm;INAA;;;;0,6;ppm;ICPMS;;;;;;;;;;;;;;;;;;;130;ppm;Unknown;;;;;;;;;;5,3;ppm;Unknown;21;ppm;Unknown;11;ppm;Unknown;;;;0,8;ppm;Unknown;;;;;;;;;;42;ppm;INAA;;;;154;ppm;Unknown;0,19;ppm;INAA;1,1;ppm;INAA;;;;;;;0,17;ppm;INAA;;;;;;;;;;47;ppm;Unknown;62;ppm;Unknown;;;;;;;;;;;;;;;;;;;;;;;;;;;;;;;;;;0,06;wt%;TITR;0,33;wt%;TITR;0,06;wt%;TITR;0,33;wt%;TITR;;;
GROSCAMP-W-246932;;GROSSMAN-CAMP;GROSSMAN, 1991;38,526;-78,014;0,001;;;CONTINENTAL_RIFT;;;;Unknown;WHOLE ROCK;IGNEOUS:VOLCANIC:MAFIC;DIABASE;;;;;;;;;;;;;;;;;;;;;;;;;;;;;;;;;;;;;;;;;;;;;;;;;;;;;;;;;;;;;;;;;;;;;;;;;;17;ppm;Unknown;51;ppm;Unknown;240;ppm;Unknown;;;;;;;;;;;;;;;;;;;;;;;;;;;;;;;;;;;;;;;;;;;;;;;;;;;;;;;;;;;;;;;;;;;;;;;;;;;;;;;;;;;;;;;;;;;;;;;;;;;;;;;;;;;;;;;;;;;;;;;;;;;;;;;;;;;;;;;;;;;;;;;;;;;;;;;;;;;;;;;;;;;;;;;;;;;;;;;;;;;;;;;;;;;;;;;;;;;;;;;;;;;;;;;;;;;;;;;;;;;;;;;;;;;;;;;;51;ppm;Unknown;;;;;;;240;ppm;Unknown;;;;;;;;;;;;;;;;;;;;;;;;;;;;;;;;;;17;ppm;Unknown;;;;;;;;;;78;ppm;Unknown;5,2;ppm;Unknown;;;;;;;;;;;;;;;;;;;;;;;;;;;;;;;;;;;;;;;;;;;;;;;;;;;;;;;;;;;;;;;;;;;;;;;;;;;;;;;;;;;;;;;;;;;;;;;;;;;;;;;;;
GROSCAMP-W-245389;;GROSSMAN-CAMP;GROSSMAN, 1991;40,2;-76,8722;0,001;;;CONTINENTAL_RIFT;;;;"AAS; COL; ICPMS; INAA; TITR; Unknown";WHOLE ROCK;IGNEOUS:VOLCANIC:MAFIC;DIABASE;;52,4;wt%;COL;0,66;wt%;COL;12;wt%;COL;;;;1,39;wt%;Unknown;;;;7,9;wt%;TITR;;;;;;;0,18;wt%;AAS;11,6;wt%;AAS;12,2;wt%;Unknown;;;;1,44;wt%;Unknown;0,3;wt%;AAS;0,07;wt%;COL;;;;;;;;;;0,11;wt%;TITR;0,23;wt%;TITR;;;;;;;;;;133;ppm;Unknown;52;ppm;Unknown;45;ppm;Unknown;;;;45;ppm;Unknown;;;;;;;;;;;;;;;;;;;;;;;;;;;;;;;;;;;;;;;;;;;;;;;;;;;;;;;;;;;;;;;;;;;;;;;;;;;;;;;;;;;;;;;;;;;;;;;;;;;;;;;;;;;;;;;;;;;;;;;;;;;;;;;;;;5,7;ppm;INAA;13;ppm;INAA;;;;7,4;ppm;INAA;2,04;ppm;INAA;0,67;ppm;INAA;;;;0,43;ppm;INAA;;;;;;;;;;;;;1,5;ppm;INAA;0,19;ppm;INAA;;;;;;;;;;;;;;;;;;;;;;;;;;;;;;;;;;;;;;;;80;ppm;Unknown;;;;;;;;;;;;;52;ppm;Unknown;640;ppm;Unknown;0,37;ppm;INAA;45;ppm;Unknown;;;;;;;1,2;ppm;INAA;;;;1,1;ppm;ICPMS;;;;;;;;;;;;;;;;;;;133;ppm;Unknown;;;;;;;;;;4,5;ppm;Unknown;22;ppm;Unknown;15;ppm;Unknown;;;;1;ppm;Unknown;;;;;;;;;;41;ppm;INAA;;;;150;ppm;Unknown;0,28;ppm;INAA;1;ppm;INAA;;;;;;;;;;;;;;;;;;;45;ppm;Unknown;58;ppm;Unknown;;;;;;;;;;;;;;;;;;;;;;;;;;;;;;;;;;0,11;wt%;TITR;0,23;wt%;TITR;0,11;wt%;TITR;0,23;wt%;TITR;;;
GROSCAMP-W-245390;;GROSSMAN-CAMP;GROSSMAN, 1991;40,2;-76,8722;0,001;;;CONTINENTAL_RIFT;;;;"AAS; COL; ICPMS; INAA; TITR; Unknown";WHOLE ROCK;IGNEOUS:VOLCANIC:MAFIC;DIABASE;;52,5;wt%;COL;0,71;wt%;COL;11,8;wt%;COL;;;;1,56;wt%;Unknown;;;;7,8;wt%;TITR;;;;;;;0,18;wt%;AAS;11,6;wt%;AAS;12,3;wt%;Unknown;;;;1,44;wt%;Unknown;0,32;wt%;AAS;0,08;wt%;COL;;;;;;;;;;0,13;wt%;TITR;0,33;wt%;TITR;;;;;;;;;;163;ppm;Unknown;52;ppm;Unknown;54;ppm;Unknown;;;;58;ppm;Unknown;;;;;;;;;;;;;;;;;;;;;;;;;;;;;;;;;;;;;;;;;;;;;;;;;;;;;;;;;;;;;;;;;;;;;;;;;;;;;;;;;;;;;;;;;;;;;;;;;;;;;;;;;;;;;;;;;;;;;;;;;;;;;;;;;;6,2;ppm;INAA;13;ppm;INAA;;;;8,9;ppm;INAA;2,17;ppm;INAA;0,67;ppm;INAA;;;;0,39;ppm;INAA;;;;;;;;;;;;;1,6;ppm;INAA;0,22;ppm;INAA;0,02;ppm;TITR;;;;;;;;;;;;;;;;;;;;;;;;;;;;;;;;;;;;;95;ppm;Unknown;;;;;;;;;;;;;52;ppm;Unknown;640;ppm;Unknown;0,53;ppm;INAA;54;ppm;Unknown;;;;;;;1,5;ppm;INAA;;;;0,9;ppm;ICPMS;;;;;;;;;;;;;;;;;;;163;ppm;Unknown;;;;;;;;;;3,7;ppm;Unknown;21;ppm;Unknown;6;ppm;Unknown;;;;0,9;ppm;Unknown;;;;;;;;;;42;ppm;INAA;;;;133;ppm;Unknown;0,31;ppm;INAA;1,2;ppm;INAA;;;;;;;;;;;;;;;;;;;58;ppm;Unknown;52;ppm;Unknown;;;;;;;;;;;;;;;;;;;;;;;;;;;;;;;;;;0,13;wt%;TITR;0,33;wt%;TITR;0,13;wt%;TITR;0,33;wt%;TITR;;;
GROSCAMP-W-245391;;GROSSMAN-CAMP;GROSSMAN, 1991;40,2;-76,8722;0,001;;;CONTINENTAL_RIFT;;;;"AAS; COL; ICPMS; INAA; TITR; Unknown";WHOLE ROCK;IGNEOUS:VOLCANIC:MAFIC;DIABASE;;52,5;wt%;COL;0,7;wt%;COL;11,3;wt%;COL;;;;1,53;wt%;Unknown;;;;7,9;wt%;TITR;;;;;;;0,22;wt%;AAS;11,9;wt%;AAS;12,2;wt%;Unknown;;;;1,39;wt%;Unknown;0,33;wt%;AAS;0,08;wt%;COL;;;;;;;;;;0,1;wt%;TITR;0,32;wt%;TITR;;;;;;;;;;154;ppm;Unknown;64;ppm;Unknown;57;ppm;Unknown;;;;65;ppm;Unknown;;;;;;;;;;;;;;;;;;;;;;;;;;;;;;;;;;;;;;;;;;;;;;;;;;;;;;;;;;;;;;;;;;;;;;;;;;;;;;;;;;;;;;;;;;;;;;;;;;;;;;;;;;;;;;;;;;;;;;;;;;;;;;;;;;6,1;ppm;INAA;14;ppm;INAA;;;;7,3;ppm;INAA;2,19;ppm;INAA;0,69;ppm;INAA;;;;0,4;ppm;INAA;;;;;;;;;;;;;1,5;ppm;INAA;0,21;ppm;INAA;0,01;ppm;TITR;;;;;;;;;;;;;;;;;;;;;;;;;;;;;;;;;;;;;128;ppm;Unknown;;;;;;;;;;;;;64;ppm;Unknown;680;ppm;Unknown;0,58;ppm;INAA;57;ppm;Unknown;;;;;;;1,5;ppm;INAA;;;;0,8;ppm;ICPMS;;;;;;;;;;;;;;;;;;;154;ppm;Unknown;;;;;;;;;;3,5;ppm;Unknown;22;ppm;Unknown;9;ppm;Unknown;;;;0,8;ppm;Unknown;;;;;;;;;;43;ppm;INAA;;;;142;ppm;Unknown;0,32;ppm;INAA;1,1;ppm;INAA;;;;;;;0,26;ppm;INAA;;;;;;;;;;65;ppm;Unknown;58;ppm;Unknown;;;;;;;;;;;;;;;;;;;;;;;;;;;;;;;;;;0,1;wt%;TITR;0,32;wt%;TITR;0,1;wt%;TITR;0,32;wt%;TITR;;;
GROSCAMP-W-245392;;GROSSMAN-CAMP;GROSSMAN, 1991;40,2;-76,8722;0,001;;;CONTINENTAL_RIFT;;;;"AAS; COL; ICPMS; INAA; TITR; Unknown";WHOLE ROCK;IGNEOUS:VOLCANIC:MAFIC;DIABASE;;52,3;wt%;COL;0,66;wt%;COL;11,8;wt%;COL;;;;1,36;wt%;Unknown;;;;7,6;wt%;TITR;;;;;;;0,18;wt%;AAS;11,9;wt%;AAS;12,2;wt%;Unknown;;;;1,5;wt%;Unknown;0,29;wt%;AAS;0,07;wt%;COL;;;;;;;;;;0,08;wt%;TITR;0,26;wt%;TITR;;;;;;;;;;152;ppm;Unknown;50;ppm;Unknown;47;ppm;Unknown;;;;59;ppm;Unknown;;;;;;;;;;;;;;;;;;;;;;;;;;;;;;;;;;;;;;;;;;;;;;;;;;;;;;;;;;;;;;;;;;;;;;;;;;;;;;;;;;;;;;;;;;;;;;;;;;;;;;;;;;;;;;;;;;;;;;;;;;;;;;;;;;5,9;ppm;INAA;12;ppm;INAA;;;;7;ppm;INAA;1,95;ppm;INAA;0,64;ppm;INAA;;;;0,38;ppm;INAA;;;;;;;;;;;;;1,4;ppm;INAA;0,22;ppm;INAA;0,01;ppm;TITR;;;;;;;;;;;;;;;;;;;;;;;;;;;;;;;;;;;;;92;ppm;Unknown;;;;;;;;;;;;;50;ppm;Unknown;730;ppm;Unknown;0,49;ppm;INAA;47;ppm;Unknown;;;;;;;1,2;ppm;INAA;;;;1,2;ppm;ICPMS;;;;;;;;;;;;;;;;;;;152;ppm;Unknown;;;;;;;;;;3,2;ppm;Unknown;22;ppm;Unknown;11;ppm;Unknown;;;;0,9;ppm;Unknown;;;;;;;;;;39;ppm;INAA;;;;149;ppm;Unknown;0,32;ppm;INAA;1;ppm;INAA;;;;;;;0,21;ppm;INAA;;;;;;;;;;59;ppm;Unknown;52;ppm;Unknown;;;;;;;;;;;;;;;;;;;;;;;;;;;;;;;;;;0,08;wt%;TITR;0,26;wt%;TITR;0,08;wt%;TITR;0,26;wt%;TITR;;;
GROSCAMP-W-245393;;GROSSMAN-CAMP;GROSSMAN, 1991;40,2;-76,8722;0,001;;;CONTINENTAL_RIFT;;;;"AAS; COL; ICPMS; INAA; TITR; Unknown";WHOLE ROCK;IGNEOUS:VOLCANIC:MAFIC;DIABASE;;51,9;wt%;COL;0,62;wt%;COL;14,5;wt%;COL;;;;1,44;wt%;Unknown;;;;6,8;wt%;TITR;;;;;;;0,15;wt%;AAS;9,94;wt%;AAS;12,9;wt%;Unknown;;;;1,63;wt%;Unknown;0,3;wt%;AAS;0,07;wt%;COL;;;;;;;;;;0,08;wt%;TITR;0,32;wt%;TITR;;;;;;;;;;131;ppm;Unknown;45;ppm;Unknown;57;ppm;Unknown;;;;51;ppm;Unknown;;;;;;;;;;;;;;;;;;;;;;;;;;;;;;;;;;;;;;;;;;;;;;;;;;;;;;;;;;;;;;;;;;;;;;;;;;;;;;;;;;;;;;;;;;;;;;;;;;;;;;;;;;;;;;;;;;;;;;;;;;;;;;;;;;5,5;ppm;INAA;12;ppm;INAA;;;;7,2;ppm;INAA;1,91;ppm;INAA;0,66;ppm;INAA;;;;0,39;ppm;INAA;;;;;;;;;;;;;1,4;ppm;INAA;0,17;ppm;INAA;0,01;ppm;TITR;;;;;;;;;;;;;;;;;;;;;;;;;;;;;;;;;;;;;88;ppm;Unknown;;;;;;;;;;;;;45;ppm;Unknown;640;ppm;Unknown;0,32;ppm;INAA;57;ppm;Unknown;;;;;;;1,1;ppm;INAA;;;;1,4;ppm;ICPMS;;;;;;;;;;;;;;;;;;;131;ppm;Unknown;;;;;;;;;;1,6;ppm;Unknown;23;ppm;Unknown;10;ppm;Unknown;;;;0,9;ppm;Unknown;0,8;ppm;ICPMS;;;;;;;37;ppm;INAA;;;;171;ppm;Unknown;0,25;ppm;INAA;0,98;ppm;INAA;;;;;;;;;;;;;;;;;;;51;ppm;Unknown;50;ppm;Unknown;;;;;;;;;;;;;;;;;;;;;;;;;;;;;;;;;;0,08;wt%;TITR;0,32;wt%;TITR;0,08;wt%;TITR;0,32;wt%;TITR;;;