SAMPLE ID;IGSN;EXPEDITION ID;REFERENCES;LATITUDE;LONGITUDE;LOC PREC;MIN ELEVATION;MAX ELEVATION;TECTONIC SETTING;MIN AGE;AGE;MAX AGE;METHOD;ANALYZED MATERIAL;ROCK TYPE;ROCK NAME;MINERAL;SIO2;SIO2 Units;SIO2 Method;TIO2;TIO2 Units;TIO2 Method;AL2O3;AL2O3 Units;AL2O3 Method;CR2O3;CR2O3 Units;CR2O3 Method;FE2O3;FE2O3 Units;FE2O3 Method;FE2O3T;FE2O3T Units;FE2O3T Method;FEO;FEO Units;FEO Method;FEOT;FEOT Units;FEOT Method;NIO;NIO Units;NIO Method;MNO;MNO Units;MNO Method;MGO;MGO Units;MGO Method;CAO;CAO Units;CAO Method;SRO;SRO Units;SRO Method;NA2O;NA2O Units;NA2O Method;K2O;K2O Units;K2O Method;P2O5;P2O5 Units;P2O5 Method;BAO;BAO Units;BAO Method;LOI;LOI Units;LOI Method;H2O;H2O Units;H2O Method;H2O_M;H2O_M Units;H2O_M Method;H2O_P;H2O_P Units;H2O_P Method;SO3;SO3 Units;SO3 Method;COO;COO Units;COO Method;MN;MN Units;MN Method;NI;NI Units;NI Method;CO;CO Units;CO Method;CU;CU Units;CU Method;CD;CD Units;CD Method;ZN;ZN Units;ZN Method;AS;AS Units;AS Method;AG;AG Units;AG Method;S;S Units;S Method;ZRO2;ZRO2 Units;ZRO2 Method;AL;AL Units;AL Method;CA;CA Units;CA Method;SR87_SR86;SR87_SR86 Units;SR87_SR86 Method;SR87_SR86_INI;SR87_SR86_INI Units;SR87_SR86_INI Method;RB87_SR86;RB87_SR86 Units;RB87_SR86 Method;ND143_ND144;ND143_ND144 Units;ND143_ND144 Method;ND143_ND144_INI;ND143_ND144_INI Units;ND143_ND144_INI Method;SM147_ND144;SM147_ND144 Units;SM147_ND144 Method;E_ND;E_ND Units;E_ND Method;E_ND_INI;E_ND_INI Units;E_ND_INI Method;PB204_PB206;PB204_PB206 Units;PB204_PB206 Method;PB206_PB204;PB206_PB204 Units;PB206_PB204 Method;PB206_PB204_INI;PB206_PB204_INI Units;PB206_PB204_INI Method;PB207_PB204;PB207_PB204 Units;PB207_PB204 Method;PB207_PB204_INI;PB207_PB204_INI Units;PB207_PB204_INI Method;PB207_PB206;PB207_PB206 Units;PB207_PB206 Method;PB208_PB204;PB208_PB204 Units;PB208_PB204 Method;PB208_PB204_INI;PB208_PB204_INI Units;PB208_PB204_INI Method;PB208_PB206;PB208_PB206 Units;PB208_PB206 Method;HF176_HF177;HF176_HF177 Units;HF176_HF177 Method;RE187_OS188;RE187_OS188 Units;RE187_OS188 Method;OS187_OS188;OS187_OS188 Units;OS187_OS188 Method;OS187_OS188_INI;OS187_OS188_INI Units;OS187_OS188_INI Method;G_OS;G_OS Units;G_OS Method;G_OS_INI;G_OS_INI Units;G_OS_INI Method;ND143_ND144_INI;ND143_ND144_INI Units;ND143_ND144_INI Method;PB206_PB204_INI;PB206_PB204_INI Units;PB206_PB204_INI Method;PB207_PB204_INI;PB207_PB204_INI Units;PB207_PB204_INI Method;PB208_PB204_INI;PB208_PB204_INI Units;PB208_PB204_INI Method;SR87_SR86_INI;SR87_SR86_INI Units;SR87_SR86_INI Method;HE;HE Units;HE Method;HE3;HE3 Units;HE3 Method;HE3_HE4_R_RA;HE3_HE4_R_RA Units;HE3_HE4_R_RA Method;AR36;AR36 Units;AR36 Method;AR40;AR40 Units;AR40 Method;AR40_AR36;AR40_AR36 Units;AR40_AR36 Method;NE20;NE20 Units;NE20 Method;NE20_NE22;NE20_NE22 Units;NE20_NE22 Method;NE21_NE22;NE21_NE22 Units;NE21_NE22 Method;LA;LA Units;LA Method;CE;CE Units;CE Method;PR;PR Units;PR Method;ND;ND Units;ND Method;SM;SM Units;SM Method;EU;EU Units;EU Method;GD;GD Units;GD Method;TB;TB Units;TB Method;DY;DY Units;DY Method;HO;HO Units;HO Method;ER;ER Units;ER Method;TM;TM Units;TM Method;YB;YB Units;YB Method;LU;LU Units;LU Method;CO2;CO2 Units;CO2 Method;F;F Units;F Method;CL;CL Units;CL Method;U238_PB204;U238_PB204 Units;U238_PB204 Method;TH230_TH232;TH230_TH232 Units;TH230_TH232 Method;RA226_ACTIVITY;RA226_ACTIVITY Units;RA226_ACTIVITY Method;PB210_RA226;PB210_RA226 Units;PB210_RA226 Method;PB210_ACTIVITY;PB210_ACTIVITY Units;PB210_ACTIVITY Method;AG;AG Units;AG Method;AL;AL Units;AL Method;AS;AS Units;AS Method;AU;AU Units;AU Method;B;B Units;B Method;BA;BA Units;BA Method;BE;BE Units;BE Method;BI;BI Units;BI Method;CA;CA Units;CA Method;CD;CD Units;CD Method;CO;CO Units;CO Method;CR;CR Units;CR Method;CS;CS Units;CS Method;CU;CU Units;CU Method;GA;GA Units;GA Method;GER;GER Units;GER Method;HF;HF Units;HF Method;INDIUM;INDIUM Units;INDIUM Method;IR;IR Units;IR Method;K;K Units;K Method;LI;LI Units;LI Method;MN;MN Units;MN Method;MO;MO Units;MO Method;NA;NA Units;NA Method;NB;NB Units;NB Method;NI;NI Units;NI Method;OS;OS Units;OS Method;P;P Units;P Method;PB;PB Units;PB Method;PD;PD Units;PD Method;PT;PT Units;PT Method;RB;RB Units;RB Method;RE;RE Units;RE Method;RH;RH Units;RH Method;RU;RU Units;RU Method;S;S Units;S Method;SB;SB Units;SB Method;SC;SC Units;SC Method;SN;SN Units;SN Method;SR;SR Units;SR Method;TA;TA Units;TA Method;TH;TH Units;TH Method;TI;TI Units;TI Method;TL;TL Units;TL Method;U;U Units;U Method;V;V Units;V Method;W;W Units;W Method;Y;Y Units;Y Method;ZN;ZN Units;ZN Method;ZR;ZR Units;ZR Method;DELTA_O18;DELTA_O18 Units;DELTA_O18 Method;DELTA_C13;DELTA_C13 Units;DELTA_C13 Method;DELTA_MO98;DELTA_MO98 Units;DELTA_MO98 Method;DELTA_ZN66;DELTA_ZN66 Units;DELTA_ZN66 Method;DELTA_ZN68;DELTA_ZN68 Units;DELTA_ZN68 Method;OS188;OS188 Units;OS188 Method;FE3P_FET;FE3P_FET Units;FE3P_FET Method;TI;TI Units;TI Method;AS;AS Units;AS Method;AS;AS Units;AS Method;GER;GER Units;GER Method;H2O_M;H2O_M Units;H2O_M Method;H2O_P;H2O_P Units;H2O_P Method;H2O_M;H2O_M Units;H2O_M Method;H2O_P;H2O_P Units;H2O_P Method;INDIUM;INDIUM Units;INDIUM Method
GROSCAMP-W-245966;;GROSSMAN-CAMP;GROSSMAN, 1991;40,346;-75,701;0,001;;;CONTINENTAL_RIFT;;;;"AAS; COL; ICP; ICPMS; INAA; TITR; Unknown";WHOLE ROCK;IGNEOUS:VOLCANIC:MAFIC;DIABASE;;52,4;wt%;COL;1,18;wt%;COL;14;wt%;COL;;;;4,14;wt%;Unknown;;;;6,9;wt%;TITR;;;;;;;0,17;wt%;AAS;7,74;wt%;AAS;11;wt%;Unknown;;;;2,09;wt%;Unknown;0,57;wt%;AAS;0,14;wt%;COL;;;;;;;;;;0,28;wt%;TITR;0,91;wt%;TITR;;;;;;;;;;96;ppm;Unknown;48;ppm;Unknown;;;;;;;67;ppm;Unknown;0,91;ppm;INAA;;;;0,01;ppm;INAA;;;;;;;;;;;;;;;;;;;;;;;;;;;;;;;;;;;;;;;;;;;;;;;;;;;;;;;;;;;;;;;;;;;;;;;;;;;;;;;;;;;;;;;;;;;;;;;;;;;;;;;;;;;;;;;;;;;;;;;;;11,1;ppm;INAA;23,3;ppm;INAA;;;;12;ppm;INAA;3,5;ppm;INAA;1,1;ppm;INAA;;;;0,6;ppm;INAA;;;;;;;;;;;;;2,2;ppm;INAA;0,31;ppm;INAA;0,02;ppm;TITR;0,02;ppm;INAA;0,01;ppm;INAA;;;;;;;;;;;;;;;;;;;;;;0,91;ppm;INAA;;;;;;;160;ppm;Unknown;;;;;;;;;;;;;48;ppm;Unknown;320;ppm;Unknown;0,74;ppm;INAA;;;;19;ppm;ICP;;;;2,6;ppm;INAA;;;;0,5;ppm;ICPMS;;;;;;;;;;;;;;;;7,7;ppm;ICP;96;ppm;Unknown;;;;;;;;;;13;ppm;Unknown;13;ppm;Unknown;27;ppm;Unknown;;;;0,7;ppm;Unknown;;;;0,01;ppm;INAA;0,23;ppm;INAA;37;ppm;INAA;;;;180;ppm;Unknown;0,53;ppm;INAA;2,2;ppm;INAA;;;;;;;0,39;ppm;INAA;;;;;;;20;ppm;Unknown;67;ppm;Unknown;;;;;;;;;;;;;;;;;;;;;;;;;;;;0,91;ppm;INAA;0,91;ppm;INAA;;;;0,28;wt%;TITR;0,91;wt%;TITR;0,28;wt%;TITR;0,91;wt%;TITR;;;
GROSCAMP-W-245967;;GROSSMAN-CAMP;GROSSMAN, 1991;40,346;-75,701;0,001;;;CONTINENTAL_RIFT;;;;"AAS; COL; ICP; ICPMS; INAA; TITR; Unknown";WHOLE ROCK;IGNEOUS:VOLCANIC:MAFIC;DIABASE;;51,7;wt%;COL;0,64;wt%;COL;12;wt%;COL;;;;1,98;wt%;Unknown;;;;8;wt%;TITR;;;;;;;0,17;wt%;AAS;13,3;wt%;AAS;11,1;wt%;Unknown;;;;1,47;wt%;Unknown;0,32;wt%;AAS;0,07;wt%;COL;;;;;;;;;;0,13;wt%;TITR;0,56;wt%;TITR;;;;;;;;;;240;ppm;Unknown;62;ppm;Unknown;;;;;;;49;ppm;Unknown;;;;;;;0,03;ppm;INAA;;;;;;;;;;;;;;;;;;;;;;;;;;;;;;;;;;;;;;;;;;;;;;;;;;;;;;;;;;;;;;;;;;;;;;;;;;;;;;;;;;;;;;;;;;;;;;;;;;;;;;;;;;;;;;;;;;;;;;;;;5,8;ppm;INAA;14;ppm;INAA;;;;;;;1,95;ppm;INAA;0,68;ppm;INAA;;;;0,37;ppm;INAA;;;;;;;;;;;;;1,3;ppm;INAA;0,2;ppm;INAA;0,04;ppm;TITR;0,02;ppm;INAA;0;ppm;INAA;;;;;;;;;;;;;;;;;;;;;;;;;;;;;;;100;ppm;Unknown;;;;;;;;;;;;;62;ppm;Unknown;990;ppm;Unknown;0,55;ppm;INAA;;;;15;ppm;ICP;;;;1,3;ppm;INAA;;;;2,5;ppm;ICPMS;;;;;;;;;;;;;;;;3,8;ppm;ICP;240;ppm;Unknown;;;;;;;;;;6,6;ppm;Unknown;32;ppm;Unknown;15;ppm;Unknown;;;;1,4;ppm;Unknown;0,8;ppm;ICPMS;0,03;ppm;INAA;;;;37;ppm;INAA;;;;140;ppm;Unknown;0,27;ppm;INAA;1;ppm;INAA;;;;;;;0,2;ppm;INAA;;;;;;;12;ppm;Unknown;49;ppm;Unknown;;;;;;;;;;;;;;;;;;;;;;;;;;;;;;;;;;;;;0,13;wt%;TITR;0,56;wt%;TITR;0,13;wt%;TITR;0,56;wt%;TITR;;;
GROSCAMP-W-245968;;GROSSMAN-CAMP;GROSSMAN, 1991;40,346;-75,701;0,001;;;CONTINENTAL_RIFT;;;;"AAS; COL; ICP; ICPMS; INAA; TITR; Unknown";WHOLE ROCK;IGNEOUS:VOLCANIC:MAFIC;DIABASE;;51,7;wt%;COL;0,49;wt%;COL;9,16;wt%;COL;;;;2,41;wt%;Unknown;;;;8;wt%;TITR;;;;;;;0,19;wt%;AAS;17,4;wt%;AAS;10,1;wt%;Unknown;;;;0,96;wt%;Unknown;0,19;wt%;AAS;;;;;;;;;;;;;0,41;wt%;TITR;0,21;wt%;TITR;;;;;;;;;;320;ppm;Unknown;72;ppm;Unknown;;;;;;;47;ppm;Unknown;;;;;;;0,03;ppm;INAA;;;;;;;;;;;;;;;;;;;;;;;;;;;;;;;;;;;;;;;;;;;;;;;;;;;;;;;;;;;;;;;;;;;;;;;;;;;;;;;;;;;;;;;;;;;;;;;;;;;;;;;;;;;;;;;;;;;;;;;;;3,8;ppm;INAA;10;ppm;INAA;;;;;;;1,38;ppm;INAA;0,5;ppm;INAA;;;;0,3;ppm;INAA;;;;;;;;;;;;;1,1;ppm;INAA;0,14;ppm;INAA;0,03;ppm;TITR;0,01;ppm;INAA;0,01;ppm;INAA;;;;;;;;;;;;;;;;;;;;;;;;;;;;;;;61;ppm;Unknown;;;;;;;;;;;;;72;ppm;Unknown;1320;ppm;Unknown;0,7;ppm;INAA;;;;12;ppm;ICP;;;;0,93;ppm;INAA;;;;2,6;ppm;ICPMS;;;;;;;;;;;;;;;;2,4;ppm;ICP;320;ppm;Unknown;;;;;;;;;;4,1;ppm;Unknown;34;ppm;Unknown;11;ppm;Unknown;;;;1,4;ppm;Unknown;0,8;ppm;ICPMS;0,03;ppm;INAA;;;;40;ppm;INAA;;;;100;ppm;Unknown;0,25;ppm;INAA;0,67;ppm;INAA;;;;;;;;;;;;;;;;9;ppm;Unknown;47;ppm;Unknown;;;;;;;;;;;;;;;;;;;;;;;;;;;;;;;;;;;;;0,41;wt%;TITR;0,21;wt%;TITR;0,41;wt%;TITR;0,21;wt%;TITR;;;
GROSCAMP-W-245969;;GROSSMAN-CAMP;GROSSMAN, 1991;40,346;-75,701;0,001;;;CONTINENTAL_RIFT;;;;"AAS; COL; ICP; ICPMS; INAA; TITR; Unknown";WHOLE ROCK;IGNEOUS:VOLCANIC:MAFIC;DIABASE;;51,9;wt%;COL;0,63;wt%;COL;9,2;wt%;COL;;;;1,95;wt%;Unknown;;;;9,2;wt%;TITR;;;;;;;0,2;wt%;AAS;16,4;wt%;AAS;9,38;wt%;Unknown;;;;1,07;wt%;Unknown;0,3;wt%;AAS;0,07;wt%;COL;;;;;;;;;;0,58;wt%;TITR;0,08;wt%;TITR;;;;;;;;;;300;ppm;Unknown;74;ppm;Unknown;;;;;;;56;ppm;Unknown;;;;;;;0,02;ppm;INAA;;;;;;;;;;;;;;;;;;;;;;;;;;;;;;;;;;;;;;;;;;;;;;;;;;;;;;;;;;;;;;;;;;;;;;;;;;;;;;;;;;;;;;;;;;;;;;;;;;;;;;;;;;;;;;;;;;;;;;;;;5,5;ppm;INAA;13;ppm;INAA;;;;8,8;ppm;INAA;1,85;ppm;INAA;0,57;ppm;INAA;;;;0,37;ppm;INAA;;;;;;;;;;;;;1,4;ppm;INAA;0,19;ppm;INAA;0,03;ppm;TITR;0,01;ppm;INAA;0,01;ppm;INAA;;;;;;;;;;;;;;;;;;;;;;;;;;;;;;;87;ppm;Unknown;;;;;;;;;;;;;74;ppm;Unknown;1140;ppm;Unknown;0,67;ppm;INAA;;;;13;ppm;ICP;;;;1,3;ppm;INAA;;;;2,1;ppm;ICPMS;;;;;;;;;;;;;;;;4,1;ppm;ICP;300;ppm;Unknown;;;;;;;;;;7,2;ppm;Unknown;27;ppm;Unknown;9,2;ppm;Unknown;;;;1,3;ppm;Unknown;0,8;ppm;ICPMS;0,02;ppm;INAA;;;;39;ppm;INAA;;;;110;ppm;Unknown;0,31;ppm;INAA;1;ppm;INAA;;;;;;;0,24;ppm;INAA;;;;;;;12;ppm;Unknown;56;ppm;Unknown;;;;;;;;;;;;;;;;;;;;;;;;;;;;;;;;;;;;;0,58;wt%;TITR;0,08;wt%;TITR;0,58;wt%;TITR;0,08;wt%;TITR;;;
GROSCAMP-W-245970;;GROSSMAN-CAMP;GROSSMAN, 1991;40,3;-75,6;0,001;;;CONTINENTAL_RIFT;;;;"AAS; COL; ICP; INAA; TITR; Unknown";WHOLE ROCK;IGNEOUS:VOLCANIC:MAFIC;DIABASE;;52,2;wt%;COL;1,13;wt%;COL;14;wt%;COL;;;;2,55;wt%;Unknown;;;;8,4;wt%;TITR;;;;;;;0,17;wt%;AAS;7,85;wt%;AAS;10,5;wt%;Unknown;;;;2,13;wt%;Unknown;0,96;wt%;AAS;0,14;wt%;COL;;;;;;;;;;0,63;wt%;TITR;0,44;wt%;TITR;;;;;;;;;;99;ppm;Unknown;49;ppm;Unknown;;;;;;;66;ppm;Unknown;1,4;ppm;INAA;;;;0,01;ppm;INAA;;;;;;;;;;;;;;;;;;;;;;;;;;;;;;;;;;;;;;;;;;;;;;;;;;;;;;;;;;;;;;;;;;;;;;;;;;;;;;;;;;;;;;;;;;;;;;;;;;;;;;;;;;;;;;;;;;;;;;;;;10,6;ppm;INAA;22;ppm;INAA;;;;;;;3,5;ppm;INAA;1,1;ppm;INAA;;;;0,68;ppm;INAA;;;;;;;;;;;;;2,1;ppm;INAA;0,3;ppm;INAA;0,03;ppm;TITR;0,03;ppm;INAA;0,02;ppm;INAA;;;;;;;;;;;;;;;;;;;;;;1,4;ppm;INAA;;;;;;;180;ppm;Unknown;;;;;;;;;;;;;49;ppm;Unknown;360;ppm;Unknown;1,1;ppm;INAA;;;;20;ppm;ICP;;;;2,6;ppm;INAA;;;;;;;;;;;;;;;;;;;;;;7,5;ppm;ICP;99;ppm;Unknown;;;;;;;;;;12;ppm;Unknown;13;ppm;Unknown;43;ppm;Unknown;;;;;;;;;;0,01;ppm;INAA;0,17;ppm;INAA;38;ppm;INAA;;;;220;ppm;Unknown;0,48;ppm;INAA;2,1;ppm;INAA;;;;;;;0,49;ppm;INAA;;;;;;;20;ppm;Unknown;66;ppm;Unknown;;;;;;;;;;;;;;;;;;;;;;;;;;;;1,4;ppm;INAA;1,4;ppm;INAA;;;;0,63;wt%;TITR;0,44;wt%;TITR;0,63;wt%;TITR;0,44;wt%;TITR;;;
GROSCAMP-W-245971;;GROSSMAN-CAMP;GROSSMAN, 1991;40;-74;0,001;;;CONTINENTAL_RIFT;;;;"AAS; COL; ICP; ICPMS; INAA; TITR; Unknown";WHOLE ROCK;IGNEOUS:VOLCANIC:MAFIC;DIABASE;;52,2;wt%;COL;1,16;wt%;COL;14,1;wt%;COL;;;;2,36;wt%;Unknown;;;;8,4;wt%;TITR;;;;;;;0,17;wt%;AAS;7,51;wt%;AAS;11;wt%;Unknown;;;;2,26;wt%;Unknown;0,61;wt%;AAS;0,14;wt%;COL;;;;;;;;;;0,46;wt%;TITR;0,39;wt%;TITR;;;;;;;;;;90;ppm;Unknown;47;ppm;Unknown;;;;;;;70;ppm;Unknown;1,5;ppm;INAA;;;;0,05;ppm;INAA;;;;;;;;;;;;;;;;;;;;;;;;;;;;;;;;;;;;;;;;;;;;;;;;;;;;;;;;;;;;;;;;;;;;;;;;;;;;;;;;;;;;;;;;;;;;;;;;;;;;;;;;;;;;;;;;;;;;;;;;;10,7;ppm;INAA;24;ppm;INAA;;;;12;ppm;INAA;3,6;ppm;INAA;1,1;ppm;INAA;;;;0,64;ppm;INAA;;;;;;;;;;;;;2,2;ppm;INAA;0,28;ppm;INAA;0,06;ppm;TITR;0,02;ppm;INAA;0,05;ppm;INAA;;;;;;;;;;;;;;;;;;;;;;1,5;ppm;INAA;;;;;;;160;ppm;Unknown;;;;;;;;;;;;;47;ppm;Unknown;283;ppm;Unknown;2,6;ppm;INAA;;;;19;ppm;ICP;;;;2,6;ppm;INAA;;;;0,6;ppm;ICPMS;;;;;;;;;;;;;;;;7,3;ppm;ICP;90;ppm;Unknown;;;;;;;;;;12;ppm;Unknown;13;ppm;Unknown;25;ppm;Unknown;;;;0,6;ppm;Unknown;;;;0,05;ppm;INAA;;;;36;ppm;INAA;;;;190;ppm;Unknown;0,52;ppm;INAA;2,3;ppm;INAA;;;;;;;0,47;ppm;INAA;;;;;;;20;ppm;Unknown;70;ppm;Unknown;;;;;;;;;;;;;;;;;;;;;;;;;;;;1,5;ppm;INAA;1,5;ppm;INAA;;;;0,46;wt%;TITR;0,39;wt%;TITR;0,46;wt%;TITR;0,39;wt%;TITR;;;
GROSCAMP-W-245972;;GROSSMAN-CAMP;GROSSMAN, 1991;40;-74;0,001;;;CONTINENTAL_RIFT;;;;"AAS; COL; ICP; ICPMS; INAA; TITR; Unknown";WHOLE ROCK;IGNEOUS:VOLCANIC:MAFIC;DIABASE;;52,1;wt%;COL;1,08;wt%;COL;15;wt%;COL;;;;2,15;wt%;Unknown;;;;7,9;wt%;TITR;;;;;;;0,16;wt%;AAS;7,18;wt%;AAS;11,5;wt%;Unknown;;;;2,13;wt%;Unknown;0,57;wt%;AAS;0,13;wt%;COL;;;;;;;;;;0,37;wt%;TITR;0,45;wt%;TITR;;;;;;;;;;89;ppm;Unknown;44;ppm;Unknown;;;;;;;69;ppm;Unknown;1,8;ppm;INAA;;;;0,03;ppm;INAA;;;;;;;;;;;;;;;;;;;;;;;;;;;;;;;;;;;;;;;;;;;;;;;;;;;;;;;;;;;;;;;;;;;;;;;;;;;;;;;;;;;;;;;;;;;;;;;;;;;;;;;;;;;;;;;;;;;;;;;;;10,1;ppm;INAA;21,8;ppm;INAA;;;;13;ppm;INAA;3,3;ppm;INAA;1;ppm;INAA;;;;0,66;ppm;INAA;;;;;;;;;;;;;2;ppm;INAA;0,3;ppm;INAA;0,07;ppm;TITR;0,02;ppm;INAA;0,03;ppm;INAA;;;;;;;;;;;;;;;;;;;;;;1,8;ppm;INAA;;;;;;;160;ppm;Unknown;;;;;;;;;;;;;44;ppm;Unknown;261;ppm;Unknown;1,3;ppm;INAA;;;;19;ppm;ICP;;;;2,4;ppm;INAA;;;;0,7;ppm;ICPMS;;;;;;;;;;;;;;;;7,3;ppm;ICP;89;ppm;Unknown;;;;;;;;;;9,2;ppm;Unknown;17;ppm;Unknown;23;ppm;Unknown;;;;0,7;ppm;Unknown;;;;0,03;ppm;INAA;0,26;ppm;INAA;35;ppm;INAA;;;;190;ppm;Unknown;0,52;ppm;INAA;2,1;ppm;INAA;;;;;;;0,44;ppm;INAA;;;;;;;19;ppm;Unknown;69;ppm;Unknown;;;;;;;;;;;;;;;;;;;;;;;;;;;;1,8;ppm;INAA;1,8;ppm;INAA;;;;0,37;wt%;TITR;0,45;wt%;TITR;0,37;wt%;TITR;0,45;wt%;TITR;;;
GROSCAMP-W-245973;;GROSSMAN-CAMP;GROSSMAN, 1991;40;-74;0,001;;;CONTINENTAL_RIFT;;;;"AAS; COL; ICP; INAA; TITR; Unknown";WHOLE ROCK;IGNEOUS:VOLCANIC:FELSIC;GRANOPHYRE;;52,8;wt%;COL;1,8;wt%;COL;13,2;wt%;COL;;;;2,53;wt%;Unknown;;;;8,3;wt%;TITR;;;;;;;0,15;wt%;AAS;3,74;wt%;AAS;9,34;wt%;Unknown;;;;3,17;wt%;Unknown;0,87;wt%;AAS;0,29;wt%;COL;;;;;;;;;;0,43;wt%;TITR;2,4;wt%;TITR;;;;;;;;;;35;ppm;Unknown;32;ppm;Unknown;;;;;;;67;ppm;Unknown;1,7;ppm;INAA;;;;0,02;ppm;INAA;;;;;;;;;;;;;;;;;;;;;;;;;;;;;;;;;;;;;;;;;;;;;;;;;;;;;;;;;;;;;;;;;;;;;;;;;;;;;;;;;;;;;;;;;;;;;;;;;;;;;;;;;;;;;;;;;;;;;;;;;24,5;ppm;INAA;51;ppm;INAA;;;;23;ppm;INAA;6;ppm;INAA;1,68;ppm;INAA;;;;1,04;ppm;INAA;;;;;;;;;;;;;3,1;ppm;INAA;0,44;ppm;INAA;0,56;ppm;TITR;0,05;ppm;INAA;0,08;ppm;INAA;;;;;;;;;;;;;;;;;;;;;;1,7;ppm;INAA;;;;;;;99;ppm;Unknown;;;;;;;;;;;;;32;ppm;Unknown;33;ppm;Unknown;0,66;ppm;INAA;;;;26;ppm;ICP;;;;5,1;ppm;INAA;;;;;;;;;;;;;;;;;;;;;;14;ppm;ICP;35;ppm;Unknown;;;;;;;;;;5,6;ppm;Unknown;3,7;ppm;Unknown;24;ppm;Unknown;;;;;;;;;;0,02;ppm;INAA;0,5;ppm;INAA;24;ppm;INAA;;;;72;ppm;Unknown;1;ppm;INAA;6,6;ppm;INAA;;;;;;;2;ppm;INAA;;;;;;;31;ppm;Unknown;67;ppm;Unknown;;;;;;;;;;;;;;;;;;;;;;;;;;;;1,7;ppm;INAA;1,7;ppm;INAA;;;;0,43;wt%;TITR;2,4;wt%;TITR;0,43;wt%;TITR;2,4;wt%;TITR;;;
GROSCAMP-W-245974;;GROSSMAN-CAMP;GROSSMAN, 1991;40;-74;0,001;;;CONTINENTAL_RIFT;;;;"AAS; COL; ICP; INAA; TITR; Unknown";WHOLE ROCK;IGNEOUS:VOLCANIC:MAFIC;DIABASE;;52,4;wt%;COL;0,91;wt%;COL;15,1;wt%;COL;;;;1,78;wt%;Unknown;;;;8,2;wt%;TITR;;;;;;;0,17;wt%;AAS;7,19;wt%;AAS;11,7;wt%;Unknown;;;;2,1;wt%;Unknown;0,49;wt%;AAS;0,1;wt%;COL;;;;;;;;;;0,38;wt%;TITR;0,54;wt%;TITR;;;;;;;;;;87;ppm;Unknown;45;ppm;Unknown;;;;;;;69;ppm;Unknown;;;;;;;0,01;ppm;INAA;;;;;;;;;;;;;;;;;;;;;;;;;;;;;;;;;;;;;;;;;;;;;;;;;;;;;;;;;;;;;;;;;;;;;;;;;;;;;;;;;;;;;;;;;;;;;;;;;;;;;;;;;;;;;;;;;;;;;;;;;8,7;ppm;INAA;19;ppm;INAA;;;;11;ppm;INAA;2,84;ppm;INAA;0,95;ppm;INAA;;;;0,56;ppm;INAA;;;;;;;;;;;;;2,1;ppm;INAA;0,27;ppm;INAA;0,06;ppm;TITR;0,02;ppm;INAA;0,03;ppm;INAA;;;;;;;;;;;;;;;;;;;;;;;;;;;;;;;140;ppm;Unknown;;;;;;;;;;;;;45;ppm;Unknown;195;ppm;Unknown;1,1;ppm;INAA;;;;18;ppm;ICP;;;;2;ppm;INAA;;;;;;;;;;;;;;;;;;;;;;6,5;ppm;ICP;87;ppm;Unknown;;;;;;;;;;9,2;ppm;Unknown;12;ppm;Unknown;17;ppm;Unknown;;;;0,6;ppm;Unknown;;;;0,01;ppm;INAA;;;;36;ppm;INAA;;;;190;ppm;Unknown;0,41;ppm;INAA;1,8;ppm;INAA;;;;;;;0,33;ppm;INAA;;;;;;;17;ppm;Unknown;69;ppm;Unknown;;;;;;;;;;;;;;;;;;;;;;;;;;;;;;;;;;;;;0,38;wt%;TITR;0,54;wt%;TITR;0,38;wt%;TITR;0,54;wt%;TITR;;;
GROSCAMP-W-245975;;GROSSMAN-CAMP;GROSSMAN, 1991;40;-74;0,001;;;CONTINENTAL_RIFT;;;;"AAS; COL; ICP; INAA; TITR; Unknown";WHOLE ROCK;IGNEOUS:VOLCANIC:FELSIC;GRANOPHYRE;;50,3;wt%;COL;1,9;wt%;COL;11,6;wt%;COL;;;;5,48;wt%;Unknown;;;;9,1;wt%;TITR;;;;;;;0,22;wt%;AAS;5,77;wt%;AAS;9,93;wt%;Unknown;;;;2,2;wt%;Unknown;0,73;wt%;AAS;0,29;wt%;COL;;;;;;;;;;0,34;wt%;TITR;2,7;wt%;TITR;;;;;;;;;;62;ppm;Unknown;53;ppm;Unknown;;;;;;;180;ppm;Unknown;1,1;ppm;INAA;;;;0,01;ppm;INAA;;;;;;;;;;;;;;;;;;;;;;;;;;;;;;;;;;;;;;;;;;;;;;;;;;;;;;;;;;;;;;;;;;;;;;;;;;;;;;;;;;;;;;;;;;;;;;;;;;;;;;;;;;;;;;;;;;;;;;;;;21,1;ppm;INAA;44;ppm;INAA;;;;21;ppm;INAA;6,1;ppm;INAA;1,41;ppm;INAA;;;;1;ppm;INAA;;;;;;;;;;;;;3,5;ppm;INAA;0,47;ppm;INAA;0,37;ppm;TITR;0,05;ppm;INAA;0,16;ppm;INAA;;;;;;;;;;;;;;;;;;;;;;1,1;ppm;INAA;;;;;;;99;ppm;Unknown;;;;;;;;;;;;;53;ppm;Unknown;42;ppm;Unknown;1,2;ppm;INAA;;;;23;ppm;ICP;;;;4,1;ppm;INAA;;;;;;;;;;;;;;;;;;;;;;13;ppm;ICP;62;ppm;Unknown;;;;;;;;;;11;ppm;Unknown;3,4;ppm;Unknown;21;ppm;Unknown;;;;;;;;;;0,01;ppm;INAA;0,18;ppm;INAA;35;ppm;INAA;;;;56;ppm;Unknown;0,96;ppm;INAA;3,7;ppm;INAA;;;;;;;0,86;ppm;INAA;;;;;;;33;ppm;Unknown;180;ppm;Unknown;;;;;;;;;;;;;;;;;;;;;;;;;;;;1,1;ppm;INAA;1,1;ppm;INAA;;;;0,34;wt%;TITR;2,7;wt%;TITR;0,34;wt%;TITR;2,7;wt%;TITR;;;
GROSCAMP-W-245976;;GROSSMAN-CAMP;GROSSMAN, 1991;40;-74;0,001;;;CONTINENTAL_RIFT;;;;"AAS; COL; ICP; INAA; TITR; Unknown";WHOLE ROCK;IGNEOUS:VOLCANIC:MAFIC;DIABASE;;52,9;wt%;COL;1,32;wt%;COL;14,6;wt%;COL;;;;2,76;wt%;Unknown;;;;8,6;wt%;TITR;;;;;;;0,18;wt%;AAS;5,85;wt%;AAS;10,4;wt%;Unknown;;;;2,44;wt%;Unknown;0,77;wt%;AAS;0,17;wt%;COL;;;;;;;;;;0,25;wt%;TITR;0,86;wt%;TITR;;;;;;;;;;66;ppm;Unknown;45;ppm;Unknown;;;;;;;86;ppm;Unknown;;;;;;;0,01;ppm;INAA;;;;;;;;;;;;;;;;;;;;;;;;;;;;;;;;;;;;;;;;;;;;;;;;;;;;;;;;;;;;;;;;;;;;;;;;;;;;;;;;;;;;;;;;;;;;;;;;;;;;;;;;;;;;;;;;;;;;;;;;;13,4;ppm;INAA;29;ppm;INAA;;;;14;ppm;INAA;4,1;ppm;INAA;1,19;ppm;INAA;;;;0,7;ppm;INAA;;;;;;;;;;;;;2,4;ppm;INAA;0,36;ppm;INAA;0,07;ppm;TITR;0,03;ppm;INAA;0,05;ppm;INAA;;;;;;;;;;;;;;;;;;;;;;;;;;;;;;;200;ppm;Unknown;;;;;;;;;;;;;45;ppm;Unknown;64;ppm;Unknown;1,5;ppm;INAA;;;;20;ppm;ICP;;;;2,9;ppm;INAA;;;;;;;;;;;;;;;;;;;;;;9;ppm;ICP;66;ppm;Unknown;;;;;;;;;;13;ppm;Unknown;6,4;ppm;Unknown;31;ppm;Unknown;;;;;;;;;;0,01;ppm;INAA;;;;36;ppm;INAA;;;;200;ppm;Unknown;0,64;ppm;INAA;2,7;ppm;INAA;;;;;;;0,57;ppm;INAA;;;;;;;23;ppm;Unknown;86;ppm;Unknown;;;;;;;;;;;;;;;;;;;;;;;;;;;;;;;;;;;;;0,25;wt%;TITR;0,86;wt%;TITR;0,25;wt%;TITR;0,86;wt%;TITR;;;
GROSCAMP-W-246933;;GROSSMAN-CAMP;GROSSMAN, 1991;38,526;-78,014;0,001;;;CONTINENTAL_RIFT;;;;Unknown;WHOLE ROCK;IGNEOUS:VOLCANIC:MAFIC;DIABASE;;;;;;;;;;;;;;;;;;;;;;;;;;;;;;;;;;;;;;;;;;;;;;;;;;;;;;;;;;;;;;;;;;;;;;;;;;23;ppm;Unknown;45;ppm;Unknown;240;ppm;Unknown;;;;;;;;;;;;;;;;;;;;;;;;;;;;;;;;;;;;;;;;;;;;;;;;;;;;;;;;;;;;;;;;;;;;;;;;;;;;;;;;;;;;;;;;;;;;;;;;;;;;;;;;;;;;;;;;;;;;;;;;;;;;;;;;;;;;;;;;;;;;;;;;;;;;;;;;;;;;;;;;;;;;;;;;;;;;;;;;;;;;;;;;;;;;;;;;;;;;;;;;;;;;;;;;;;;;;;;;;;;;;;;;;;;;;;;;45;ppm;Unknown;;;;;;;240;ppm;Unknown;;;;;;;;;;;;;;;;;;;;;;;;;;;;;;;;;;23;ppm;Unknown;;;;;;;;;;49;ppm;Unknown;4,5;ppm;Unknown;;;;;;;;;;;;;;;;;;;;;;;;;;;;;;;;;;;;;;;;;;;;;;;;;;;;;;;;;;;;;;;;;;;;;;;;;;;;;;;;;;;;;;;;;;;;;;;;;;;;;;;;;