SAMPLE ID;IGSN;EXPEDITION ID;REFERENCES;LATITUDE;LONGITUDE;LOC PREC;MIN ELEVATION;MAX ELEVATION;TECTONIC SETTING;MIN AGE;AGE;MAX AGE;METHOD;ANALYZED MATERIAL;ROCK TYPE;ROCK NAME;MINERAL;SIO2;SIO2 Units;SIO2 Method;TIO2;TIO2 Units;TIO2 Method;AL2O3;AL2O3 Units;AL2O3 Method;CR2O3;CR2O3 Units;CR2O3 Method;FE2O3;FE2O3 Units;FE2O3 Method;FE2O3T;FE2O3T Units;FE2O3T Method;FEO;FEO Units;FEO Method;FEOT;FEOT Units;FEOT Method;NIO;NIO Units;NIO Method;MNO;MNO Units;MNO Method;MGO;MGO Units;MGO Method;CAO;CAO Units;CAO Method;SRO;SRO Units;SRO Method;NA2O;NA2O Units;NA2O Method;K2O;K2O Units;K2O Method;P2O5;P2O5 Units;P2O5 Method;BAO;BAO Units;BAO Method;LOI;LOI Units;LOI Method;H2O;H2O Units;H2O Method;H2O_M;H2O_M Units;H2O_M Method;H2O_P;H2O_P Units;H2O_P Method;SO3;SO3 Units;SO3 Method;COO;COO Units;COO Method;MN;MN Units;MN Method;NI;NI Units;NI Method;CO;CO Units;CO Method;CU;CU Units;CU Method;CD;CD Units;CD Method;ZN;ZN Units;ZN Method;AS;AS Units;AS Method;AG;AG Units;AG Method;S;S Units;S Method;ZRO2;ZRO2 Units;ZRO2 Method;AL;AL Units;AL Method;CA;CA Units;CA Method;SR87_SR86;SR87_SR86 Units;SR87_SR86 Method;SR87_SR86_INI;SR87_SR86_INI Units;SR87_SR86_INI Method;RB87_SR86;RB87_SR86 Units;RB87_SR86 Method;ND143_ND144;ND143_ND144 Units;ND143_ND144 Method;ND143_ND144_INI;ND143_ND144_INI Units;ND143_ND144_INI Method;SM147_ND144;SM147_ND144 Units;SM147_ND144 Method;E_ND;E_ND Units;E_ND Method;E_ND_INI;E_ND_INI Units;E_ND_INI Method;PB204_PB206;PB204_PB206 Units;PB204_PB206 Method;PB206_PB204;PB206_PB204 Units;PB206_PB204 Method;PB206_PB204_INI;PB206_PB204_INI Units;PB206_PB204_INI Method;PB207_PB204;PB207_PB204 Units;PB207_PB204 Method;PB207_PB204_INI;PB207_PB204_INI Units;PB207_PB204_INI Method;PB207_PB206;PB207_PB206 Units;PB207_PB206 Method;PB208_PB204;PB208_PB204 Units;PB208_PB204 Method;PB208_PB204_INI;PB208_PB204_INI Units;PB208_PB204_INI Method;PB208_PB206;PB208_PB206 Units;PB208_PB206 Method;HF176_HF177;HF176_HF177 Units;HF176_HF177 Method;RE187_OS188;RE187_OS188 Units;RE187_OS188 Method;OS187_OS188;OS187_OS188 Units;OS187_OS188 Method;OS187_OS188_INI;OS187_OS188_INI Units;OS187_OS188_INI Method;G_OS;G_OS Units;G_OS Method;G_OS_INI;G_OS_INI Units;G_OS_INI Method;ND143_ND144_INI;ND143_ND144_INI Units;ND143_ND144_INI Method;PB206_PB204_INI;PB206_PB204_INI Units;PB206_PB204_INI Method;PB207_PB204_INI;PB207_PB204_INI Units;PB207_PB204_INI Method;PB208_PB204_INI;PB208_PB204_INI Units;PB208_PB204_INI Method;SR87_SR86_INI;SR87_SR86_INI Units;SR87_SR86_INI Method;HE;HE Units;HE Method;HE3;HE3 Units;HE3 Method;HE3_HE4_R_RA;HE3_HE4_R_RA Units;HE3_HE4_R_RA Method;AR36;AR36 Units;AR36 Method;AR40;AR40 Units;AR40 Method;AR40_AR36;AR40_AR36 Units;AR40_AR36 Method;NE20;NE20 Units;NE20 Method;NE20_NE22;NE20_NE22 Units;NE20_NE22 Method;NE21_NE22;NE21_NE22 Units;NE21_NE22 Method;LA;LA Units;LA Method;CE;CE Units;CE Method;PR;PR Units;PR Method;ND;ND Units;ND Method;SM;SM Units;SM Method;EU;EU Units;EU Method;GD;GD Units;GD Method;TB;TB Units;TB Method;DY;DY Units;DY Method;HO;HO Units;HO Method;ER;ER Units;ER Method;TM;TM Units;TM Method;YB;YB Units;YB Method;LU;LU Units;LU Method;CO2;CO2 Units;CO2 Method;F;F Units;F Method;CL;CL Units;CL Method;U238_PB204;U238_PB204 Units;U238_PB204 Method;TH230_TH232;TH230_TH232 Units;TH230_TH232 Method;RA226_ACTIVITY;RA226_ACTIVITY Units;RA226_ACTIVITY Method;PB210_RA226;PB210_RA226 Units;PB210_RA226 Method;PB210_ACTIVITY;PB210_ACTIVITY Units;PB210_ACTIVITY Method;AG;AG Units;AG Method;AL;AL Units;AL Method;AS;AS Units;AS Method;AU;AU Units;AU Method;B;B Units;B Method;BA;BA Units;BA Method;BE;BE Units;BE Method;BI;BI Units;BI Method;CA;CA Units;CA Method;CD;CD Units;CD Method;CO;CO Units;CO Method;CR;CR Units;CR Method;CS;CS Units;CS Method;CU;CU Units;CU Method;GA;GA Units;GA Method;GER;GER Units;GER Method;HF;HF Units;HF Method;INDIUM;INDIUM Units;INDIUM Method;IR;IR Units;IR Method;K;K Units;K Method;LI;LI Units;LI Method;MN;MN Units;MN Method;MO;MO Units;MO Method;NA;NA Units;NA Method;NB;NB Units;NB Method;NI;NI Units;NI Method;OS;OS Units;OS Method;P;P Units;P Method;PB;PB Units;PB Method;PD;PD Units;PD Method;PT;PT Units;PT Method;RB;RB Units;RB Method;RE;RE Units;RE Method;RH;RH Units;RH Method;RU;RU Units;RU Method;S;S Units;S Method;SB;SB Units;SB Method;SC;SC Units;SC Method;SN;SN Units;SN Method;SR;SR Units;SR Method;TA;TA Units;TA Method;TH;TH Units;TH Method;TI;TI Units;TI Method;TL;TL Units;TL Method;U;U Units;U Method;V;V Units;V Method;W;W Units;W Method;Y;Y Units;Y Method;ZN;ZN Units;ZN Method;ZR;ZR Units;ZR Method;DELTA_O18;DELTA_O18 Units;DELTA_O18 Method;DELTA_C13;DELTA_C13 Units;DELTA_C13 Method;DELTA_MO98;DELTA_MO98 Units;DELTA_MO98 Method;DELTA_ZN66;DELTA_ZN66 Units;DELTA_ZN66 Method;DELTA_ZN68;DELTA_ZN68 Units;DELTA_ZN68 Method;OS188;OS188 Units;OS188 Method;FE3P_FET;FE3P_FET Units;FE3P_FET Method;TI;TI Units;TI Method;AS;AS Units;AS Method;AS;AS Units;AS Method;GER;GER Units;GER Method;H2O_M;H2O_M Units;H2O_M Method;H2O_P;H2O_P Units;H2O_P Method;H2O_M;H2O_M Units;H2O_M Method;H2O_P;H2O_P Units;H2O_P Method;INDIUM;INDIUM Units;INDIUM Method
GROSCAMP-W-241931;;GROSSMAN-CAMP;GROSSMAN, 1991;39,0197;-77,5644;0,001;;;CONTINENTAL_RIFT;;;;"AAS; COL; ES; ICP; INAA; TITR; Unknown";WHOLE ROCK;IGNEOUS:VOLCANIC:MAFIC;DIABASE;;51,7;wt%;COL;0,95;wt%;COL;14,8;wt%;COL;;;;3,82;wt%;Unknown;;;;8,5;wt%;TITR;;;;;;;0,18;wt%;AAS;5,74;wt%;AAS;10,6;wt%;Unknown;;;;2,64;wt%;Unknown;0,6;wt%;AAS;0,09;wt%;COL;;;;;;;;;;0,61;wt%;TITR;1,2;wt%;TITR;;;;;;;;;;52;ppm;Unknown;48;ppm;Unknown;106;ppm;Unknown;;;;115;ppm;Unknown;1,8;ppm;INAA;;;;0,02;ppm;INAA;;;;;;;;;;;;;;;;;;;;;;;;;;;;;;;;;;;;;;;;;;;;;;;;;;;;;;;;;;;;;;;;;;;;;;;;;;;;;;;;;;;;;;;;;;;;;;;;;;;;;;;;;;;;;;;;;;;;;;;;;10;ppm;INAA;21,7;ppm;INAA;;;;13;ppm;INAA;3,5;ppm;INAA;1,22;ppm;INAA;;;;0,7;ppm;INAA;;;;;;;;;;;;;2,6;ppm;INAA;0,37;ppm;INAA;0,04;ppm;TITR;0,02;ppm;INAA;;;;;;;;;;;;;;;;;;;;;;;;;1,8;ppm;INAA;;;;10;ppm;ES;164;ppm;Unknown;;;;;;;;;;;;;48;ppm;Unknown;79;ppm;Unknown;0,77;ppm;INAA;106;ppm;Unknown;;;;;;;2,1;ppm;INAA;;;;;;;;;;;;;;;;;;;;;;5,7;ppm;ICP;52;ppm;Unknown;;;;;;;;;;5,9;ppm;Unknown;7,4;ppm;Unknown;18;ppm;Unknown;;;;;;;;;;0,02;ppm;INAA;;;;40;ppm;INAA;;;;200;ppm;Unknown;0,38;ppm;INAA;1,9;ppm;INAA;;;;;;;0,45;ppm;INAA;180;ppm;ICP;;;;31;ppm;Unknown;115;ppm;Unknown;86;ppm;Unknown;;;;;;;;;;;;;;;;;;;;;;;;;1,8;ppm;INAA;1,8;ppm;INAA;;;;0,61;wt%;TITR;1,2;wt%;TITR;0,61;wt%;TITR;1,2;wt%;TITR;;;
GROSCAMP-W-241932;;GROSSMAN-CAMP;GROSSMAN, 1991;39,0197;-77,5644;0,001;;;CONTINENTAL_RIFT;;;;"AAS; COL; ES; ICP; INAA; TITR; Unknown";WHOLE ROCK;IGNEOUS:VOLCANIC:MAFIC;DIABASE;;52,9;wt%;COL;1,34;wt%;COL;13,5;wt%;COL;;;;2,66;wt%;Unknown;;;;9,6;wt%;TITR;;;;;;;0,19;wt%;AAS;6,29;wt%;AAS;10,2;wt%;Unknown;;;;2,32;wt%;Unknown;0,75;wt%;AAS;0,16;wt%;COL;;;;;;;;;;0,17;wt%;TITR;0,69;wt%;TITR;;;;;;;;;;65;ppm;Unknown;48;ppm;Unknown;140;ppm;Unknown;;;;81;ppm;Unknown;1,7;ppm;INAA;;;;0,01;ppm;INAA;;;;;;;;;;;;;;;;;;;;;;;;;;;;;;;;;;;;;;;;;;;;;;;;;;;;;;;;;;;;;;;;;;;;;;;;;;;;;;;;;;;;;;;;;;;;;;;;;;;;;;;;;;;;;;;;;;;;;;;;;13,4;ppm;INAA;28,6;ppm;INAA;;;;15;ppm;INAA;4,1;ppm;INAA;1,26;ppm;INAA;;;;0,81;ppm;INAA;;;;;;;;;;;;;2,5;ppm;INAA;0,38;ppm;INAA;0,05;ppm;TITR;0,02;ppm;INAA;;;;;;;;;;;;;;;;;;;;;;;;;1,7;ppm;INAA;;;;7,9;ppm;ES;187;ppm;Unknown;;;;;;;;;;;;;48;ppm;Unknown;81;ppm;Unknown;1,2;ppm;INAA;140;ppm;Unknown;;;;;;;3,1;ppm;INAA;;;;;;;;;;;;;;;;;;;;;;10;ppm;ICP;65;ppm;Unknown;;;;;;;;;;7;ppm;Unknown;5,8;ppm;Unknown;19;ppm;Unknown;;;;;;;;;;0,01;ppm;INAA;0,15;ppm;INAA;39;ppm;INAA;;;;182;ppm;Unknown;0,65;ppm;INAA;2,9;ppm;INAA;;;;;;;0,52;ppm;INAA;;;;;;;22;ppm;Unknown;81;ppm;Unknown;104;ppm;Unknown;;;;;;;;;;;;;;;;;;;;;;;;;1,7;ppm;INAA;1,7;ppm;INAA;;;;0,17;wt%;TITR;0,69;wt%;TITR;0,17;wt%;TITR;0,69;wt%;TITR;;;
GROSCAMP-W-241933;;GROSSMAN-CAMP;GROSSMAN, 1991;39,0197;-77,5644;0,001;;;CONTINENTAL_RIFT;;;;"AAS; COL; ES; ICP; INAA; TITR; Unknown";WHOLE ROCK;IGNEOUS:VOLCANIC:MAFIC;DIABASE;;53;wt%;COL;1,38;wt%;COL;13,9;wt%;COL;;;;2,31;wt%;Unknown;;;;9,5;wt%;TITR;;;;;;;0,19;wt%;AAS;6,27;wt%;AAS;10,2;wt%;Unknown;;;;2,37;wt%;Unknown;0,77;wt%;AAS;0,16;wt%;COL;;;;;;;;;;0,17;wt%;TITR;0,7;wt%;TITR;;;;;;;;;;59;ppm;Unknown;48;ppm;Unknown;110;ppm;Unknown;;;;73;ppm;Unknown;1;ppm;INAA;;;;0,04;ppm;INAA;;;;;;;;;;;;;;;;;;;;;;;;;;;;;;;;;;;;;;;;;;;;;;;;;;;;;;;;;;;;;;;;;;;;;;;;;;;;;;;;;;;;;;;;;;;;;;;;;;;;;;;;;;;;;;;;;;;;;;;;;13;ppm;INAA;27,7;ppm;INAA;;;;14;ppm;INAA;4;ppm;INAA;1,2;ppm;INAA;;;;0,73;ppm;INAA;;;;;;;;;;;;;2,5;ppm;INAA;0,36;ppm;INAA;0,04;ppm;TITR;0,02;ppm;INAA;;;;;;;;;;;;;;;;;;;;;;;;;1;ppm;INAA;;;;13;ppm;ES;179;ppm;Unknown;;;;;;;;;;;;;48;ppm;Unknown;88;ppm;Unknown;1,2;ppm;INAA;110;ppm;Unknown;;;;;;;3,1;ppm;INAA;;;;;;;;;;;;;;;;;;;;;;10;ppm;ICP;59;ppm;Unknown;;;;;;;;;;5,6;ppm;Unknown;6,5;ppm;Unknown;25;ppm;Unknown;;;;;;;;;;0,04;ppm;INAA;0,25;ppm;INAA;38;ppm;INAA;;;;202;ppm;Unknown;0,65;ppm;INAA;2,7;ppm;INAA;;;;;;;0,37;ppm;INAA;300;ppm;ICP;;;;28;ppm;Unknown;73;ppm;Unknown;111;ppm;Unknown;;;;;;;;;;;;;;;;;;;;;;;;;1;ppm;INAA;1;ppm;INAA;;;;0,17;wt%;TITR;0,7;wt%;TITR;0,17;wt%;TITR;0,7;wt%;TITR;;;
GROSCAMP-W-241934;;GROSSMAN-CAMP;GROSSMAN, 1991;39,0197;-77,5644;0,001;;;CONTINENTAL_RIFT;;;;"AAS; COL; ES; ICP; INAA; TITR; Unknown";WHOLE ROCK;IGNEOUS:VOLCANIC:MAFIC;DIABASE;;51,5;wt%;COL;3,71;wt%;COL;12,8;wt%;COL;;;;4,66;wt%;Unknown;;;;12,4;wt%;TITR;;;;;;;0,22;wt%;AAS;2,88;wt%;AAS;8,52;wt%;Unknown;;;;2,6;wt%;Unknown;0,98;wt%;AAS;0,23;wt%;COL;;;;;;;;;;0,29;wt%;TITR;0,71;wt%;TITR;;;;;;;;;;7;ppm;Unknown;51;ppm;Unknown;460;ppm;Unknown;;;;108;ppm;Unknown;1,7;ppm;INAA;;;;0,03;ppm;INAA;;;;;;;;;;;;;;;;;;;;;;;;;;;;;;;;;;;;;;;;;;;;;;;;;;;;;;;;;;;;;;;;;;;;;;;;;;;;;;;;;;;;;;;;;;;;;;;;;;;;;;;;;;;;;;;;;;;;;;;;;18,2;ppm;INAA;39;ppm;INAA;;;;20;ppm;INAA;5,8;ppm;INAA;1,88;ppm;INAA;;;;1,1;ppm;INAA;;;;;;;;;;;;;3,8;ppm;INAA;0,54;ppm;INAA;0,02;ppm;TITR;0,03;ppm;INAA;0,03;ppm;INAA;;;;;;;;;;;;;;;;;;;;;;1,7;ppm;INAA;24;ppm;INAA;9,3;ppm;ES;242;ppm;Unknown;;;;;;;;;;;;;51;ppm;Unknown;2,1;ppm;Unknown;5,6;ppm;INAA;460;ppm;Unknown;;;;;;;4,5;ppm;INAA;;;;;;;;;;;;;;;;;;;;;;20;ppm;ICP;7;ppm;Unknown;;;;;;;;;;10;ppm;Unknown;4,9;ppm;Unknown;33;ppm;Unknown;;;;;;;;;;0,03;ppm;INAA;;;;46;ppm;INAA;;;;204;ppm;Unknown;1,2;ppm;INAA;4;ppm;INAA;;;;;;;0,85;ppm;INAA;;;;;;;45;ppm;Unknown;108;ppm;Unknown;149;ppm;Unknown;;;;;;;;;;;;;;;;;;;;;;;;;1,7;ppm;INAA;1,7;ppm;INAA;;;;0,29;wt%;TITR;0,71;wt%;TITR;0,29;wt%;TITR;0,71;wt%;TITR;;;
GROSCAMP-W-241935;;GROSSMAN-CAMP;GROSSMAN, 1991;39,0197;-77,5644;0,001;;;CONTINENTAL_RIFT;;;;"AAS; COL; ICP; INAA; TITR; Unknown";WHOLE ROCK;IGNEOUS:VOLCANIC:MAFIC;DIABASE;;53,7;wt%;COL;3,31;wt%;COL;12,9;wt%;COL;;;;2,01;wt%;Unknown;;;;7,2;wt%;TITR;;;;;;;0,19;wt%;AAS;3,09;wt%;AAS;9,75;wt%;Unknown;;;;3,63;wt%;Unknown;2,5;wt%;AAS;0,21;wt%;COL;;;;;;;;;;0,09;wt%;TITR;0,81;wt%;TITR;;;;;;;;;;8;ppm;Unknown;27,6;ppm;Unknown;145;ppm;Unknown;;;;58;ppm;Unknown;4,4;ppm;INAA;;;;0,03;ppm;INAA;;;;;;;;;;;;;;;;;;;;;;;;;;;;;;;;;;;;;;;;;;;;;;;;;;;;;;;;;;;;;;;;;;;;;;;;;;;;;;;;;;;;;;;;;;;;;;;;;;;;;;;;;;;;;;;;;;;;;;;;;17;ppm;INAA;38;ppm;INAA;;;;19;ppm;INAA;5,6;ppm;INAA;1,95;ppm;INAA;;;;1,02;ppm;INAA;;;;;;;;;;;;;3,2;ppm;INAA;0,46;ppm;INAA;0,12;ppm;TITR;0,03;ppm;INAA;0,08;ppm;INAA;;;;;;;;;;;;;;;;;;;;;;4,4;ppm;INAA;17;ppm;INAA;;;;440;ppm;Unknown;;;;;;;;;;;;;27,6;ppm;Unknown;;;;0,78;ppm;INAA;145;ppm;Unknown;;;;;;;4,7;ppm;INAA;;;;;;;;;;;;;;;;;;;;;;22;ppm;ICP;8;ppm;Unknown;;;;;;;;;;40;ppm;Unknown;6,4;ppm;Unknown;74;ppm;Unknown;;;;;;;;;;0,03;ppm;INAA;0,34;ppm;INAA;41;ppm;INAA;;;;340;ppm;Unknown;1,3;ppm;INAA;4,2;ppm;INAA;;;;;;;1,6;ppm;INAA;;;;;;;35;ppm;Unknown;58;ppm;Unknown;166;ppm;Unknown;;;;;;;;;;;;;;;;;;;;;;;;;4,4;ppm;INAA;4,4;ppm;INAA;;;;0,09;wt%;TITR;0,81;wt%;TITR;0,09;wt%;TITR;0,81;wt%;TITR;;;
GROSCAMP-W-241936;;GROSSMAN-CAMP;GROSSMAN, 1991;39,0197;-77,5644;0,001;;;CONTINENTAL_RIFT;;;;"AAS; COL; ES; ICP; INAA; TITR; Unknown";WHOLE ROCK;IGNEOUS:VOLCANIC:MAFIC;DIABASE;;52,4;wt%;COL;2,99;wt%;COL;13,7;wt%;COL;;;;4,81;wt%;Unknown;;;;10,6;wt%;TITR;;;;;;;0,19;wt%;AAS;2,69;wt%;AAS;8,6;wt%;Unknown;;;;2,95;wt%;Unknown;1,09;wt%;AAS;0,23;wt%;COL;;;;;;;;;;0,31;wt%;TITR;0,59;wt%;TITR;;;;;;;;;;6;ppm;Unknown;46;ppm;Unknown;169;ppm;Unknown;;;;74;ppm;Unknown;2,4;ppm;INAA;;;;0,02;ppm;INAA;;;;;;;;;;;;;;;;;;;;;;;;;;;;;;;;;;;;;;;;;;;;;;;;;;;;;;;;;;;;;;;;;;;;;;;;;;;;;;;;;;;;;;;;;;;;;;;;;;;;;;;;;;;;;;;;;;;;;;;;;20,8;ppm;INAA;45;ppm;INAA;;;;22;ppm;INAA;6,2;ppm;INAA;2,01;ppm;INAA;;;;1,16;ppm;INAA;;;;;;;;;;;;;3,7;ppm;INAA;0,54;ppm;INAA;0,04;ppm;TITR;0,03;ppm;INAA;;;;;;;;;;;;;;;;;;;;;;;;;2,4;ppm;INAA;;;;13;ppm;ES;286;ppm;Unknown;;;;;;;;;;;;;46;ppm;Unknown;;;;3,1;ppm;INAA;169;ppm;Unknown;;;;;;;5;ppm;INAA;;;;;;;;;;;;;;;;;;;;;;20;ppm;ICP;6;ppm;Unknown;;;;;;;;;;44;ppm;Unknown;5,7;ppm;Unknown;37;ppm;Unknown;;;;;;;;;;0,02;ppm;INAA;0,23;ppm;INAA;38;ppm;INAA;;;;223;ppm;Unknown;1,2;ppm;INAA;4,6;ppm;INAA;;;;;;;0,92;ppm;INAA;;;;;;;40;ppm;Unknown;74;ppm;Unknown;172;ppm;Unknown;;;;;;;;;;;;;;;;;;;;;;;;;2,4;ppm;INAA;2,4;ppm;INAA;;;;0,31;wt%;TITR;0,59;wt%;TITR;0,31;wt%;TITR;0,59;wt%;TITR;;;
GROSCAMP-W-241937;;GROSSMAN-CAMP;GROSSMAN, 1991;39,0197;-77,5644;0,001;;;CONTINENTAL_RIFT;;;;"AAS; COL; ES; ICP; INAA; TITR; Unknown";WHOLE ROCK;IGNEOUS:VOLCANIC:MAFIC;DIABASE;;53,6;wt%;COL;2,28;wt%;COL;14,6;wt%;COL;;;;2,99;wt%;Unknown;;;;10;wt%;TITR;;;;;;;0,17;wt%;AAS;2,39;wt%;AAS;8,09;wt%;Unknown;;;;3,15;wt%;Unknown;1,94;wt%;AAS;0,28;wt%;COL;;;;;;;;;;0,15;wt%;TITR;1,1;wt%;TITR;;;;;;;;;;14;ppm;Unknown;39;ppm;Unknown;115;ppm;Unknown;;;;91;ppm;Unknown;2,3;ppm;INAA;;;;0,03;ppm;INAA;;;;;;;;;;;;;;;;;;;;;;;;;;;;;;;;;;;;;;;;;;;;;;;;;;;;;;;;;;;;;;;;;;;;;;;;;;;;;;;;;;;;;;;;;;;;;;;;;;;;;;;;;;;;;;;;;;;;;;;;;21,6;ppm;INAA;45;ppm;INAA;;;;23;ppm;INAA;6,3;ppm;INAA;1,9;ppm;INAA;;;;1,15;ppm;INAA;;;;;;;;;;;;;3,7;ppm;INAA;0,52;ppm;INAA;0,03;ppm;TITR;0,04;ppm;INAA;;;;;;;;;;;;;;;;;;;;;;;;;2,3;ppm;INAA;8,2;ppm;INAA;32;ppm;ES;380;ppm;Unknown;;;;;;;;;;;;;39;ppm;Unknown;3;ppm;Unknown;1,1;ppm;INAA;115;ppm;Unknown;;;;;;;5;ppm;INAA;;;;;;;;;;;;;;;;;;;;;;17;ppm;ICP;14;ppm;Unknown;;;;;;;;;;20;ppm;Unknown;4,7;ppm;Unknown;57;ppm;Unknown;;;;;;;;;;0,03;ppm;INAA;0,29;ppm;INAA;32;ppm;INAA;;;;390;ppm;Unknown;1;ppm;INAA;4,8;ppm;INAA;;;;;;;0,92;ppm;INAA;;;;;;;34;ppm;Unknown;91;ppm;Unknown;180;ppm;Unknown;;;;;;;;;;;;;;;;;;;;;;;;;2,3;ppm;INAA;2,3;ppm;INAA;;;;0,15;wt%;TITR;1,1;wt%;TITR;0,15;wt%;TITR;1,1;wt%;TITR;;;
GROSCAMP-W-241938;;GROSSMAN-CAMP;GROSSMAN, 1991;39,0197;-77,5644;0,001;;;CONTINENTAL_RIFT;;;;"AAS; COL; ICP; INAA; TITR; Unknown";WHOLE ROCK;IGNEOUS:VOLCANIC:MAFIC;DIABASE;;52,8;wt%;COL;2,11;wt%;COL;15,3;wt%;COL;;;;2,51;wt%;Unknown;;;;9,1;wt%;TITR;;;;;;;0,17;wt%;AAS;2,24;wt%;AAS;7,84;wt%;Unknown;;;;4,27;wt%;Unknown;2,11;wt%;AAS;0,27;wt%;COL;;;;;;;;;;0,11;wt%;TITR;1,1;wt%;TITR;;;;;;;;;;17;ppm;Unknown;35;ppm;Unknown;84;ppm;Unknown;;;;150;ppm;Unknown;4,7;ppm;INAA;;;;0,04;ppm;INAA;;;;;;;;;;;;;;;;;;;;;;;;;;;;;;;;;;;;;;;;;;;;;;;;;;;;;;;;;;;;;;;;;;;;;;;;;;;;;;;;;;;;;;;;;;;;;;;;;;;;;;;;;;;;;;;;;;;;;;;;;20,6;ppm;INAA;43;ppm;INAA;;;;22;ppm;INAA;6,1;ppm;INAA;1,88;ppm;INAA;;;;1,08;ppm;INAA;;;;;;;;;;;;;3,5;ppm;INAA;0,48;ppm;INAA;0,02;ppm;TITR;0,05;ppm;INAA;;;;;;;;;;;;;;;;;;;;;;;;;4,7;ppm;INAA;;;;;;;330;ppm;Unknown;;;;;;;;;;;;;35;ppm;Unknown;;;;0,56;ppm;INAA;84;ppm;Unknown;;;;;;;4,7;ppm;INAA;;;;;;;;;;;;;;;;;;;;;;16;ppm;ICP;17;ppm;Unknown;;;;;;;;;;15;ppm;Unknown;3,4;ppm;Unknown;76;ppm;Unknown;;;;;;;;;;0,04;ppm;INAA;0,34;ppm;INAA;30;ppm;INAA;;;;410;ppm;Unknown;1;ppm;INAA;4,5;ppm;INAA;;;;;;;1,1;ppm;INAA;;;;;;;35;ppm;Unknown;150;ppm;Unknown;169;ppm;Unknown;;;;;;;;;;;;;;;;;;;;;;;;;4,7;ppm;INAA;4,7;ppm;INAA;;;;0,11;wt%;TITR;1,1;wt%;TITR;0,11;wt%;TITR;1,1;wt%;TITR;;;
GROSCAMP-W-241939;;GROSSMAN-CAMP;GROSSMAN, 1991;39,0197;-77,5644;0,001;;;CONTINENTAL_RIFT;;;;"AAS; COL; ES; ICP; INAA; TITR; Unknown";WHOLE ROCK;IGNEOUS:VOLCANIC:MAFIC;DIABASE;;54,8;wt%;COL;2,18;wt%;COL;14,4;wt%;COL;;;;1,77;wt%;Unknown;;;;6,4;wt%;TITR;;;;;;;0,18;wt%;AAS;2,52;wt%;AAS;10,5;wt%;Unknown;;;;4,41;wt%;Unknown;2,46;wt%;AAS;0,24;wt%;COL;;;;;;;;;;0,1;wt%;TITR;0,9;wt%;TITR;;;;;;;;;;23;ppm;Unknown;26;ppm;Unknown;143;ppm;Unknown;;;;156;ppm;Unknown;2,6;ppm;INAA;;;;0,04;ppm;INAA;;;;;;;;;;;;;;;;;;;;;;;;;;;;;;;;;;;;;;;;;;;;;;;;;;;;;;;;;;;;;;;;;;;;;;;;;;;;;;;;;;;;;;;;;;;;;;;;;;;;;;;;;;;;;;;;;;;;;;;;;29;ppm;INAA;58;ppm;INAA;;;;26;ppm;INAA;7;ppm;INAA;1,73;ppm;INAA;;;;1,16;ppm;INAA;;;;;;;;;;;;;3,7;ppm;INAA;0,51;ppm;INAA;0,05;ppm;TITR;0,03;ppm;INAA;;;;;;;;;;;;;;;;;;;;;;;;;2,6;ppm;INAA;;;;20;ppm;ES;1070;ppm;Unknown;;;;;;;;;;;;;26;ppm;Unknown;1,4;ppm;Unknown;0,25;ppm;INAA;143;ppm;Unknown;;;;;;;5;ppm;INAA;;;;;;;;;;;;;;;;;;;;;;16;ppm;ICP;23;ppm;Unknown;;;;;;;;;;14;ppm;Unknown;3,3;ppm;Unknown;82;ppm;Unknown;;;;;;;;;;0,04;ppm;INAA;0,22;ppm;INAA;31;ppm;INAA;;;;292;ppm;Unknown;1,2;ppm;INAA;4,5;ppm;INAA;;;;;;;2,1;ppm;INAA;;;;;;;44;ppm;Unknown;156;ppm;Unknown;177;ppm;Unknown;;;;;;;;;;;;;;;;;;;;;;;;;2,6;ppm;INAA;2,6;ppm;INAA;;;;0,1;wt%;TITR;0,9;wt%;TITR;0,1;wt%;TITR;0,9;wt%;TITR;;;
GROSCAMP-W-241940;;GROSSMAN-CAMP;GROSSMAN, 1991;39,0197;-77,5644;0,001;;;CONTINENTAL_RIFT;;;;"AAS; COL; ICP; INAA; TITR; Unknown";WHOLE ROCK;IGNEOUS:VOLCANIC:MAFIC;DIABASE;;53,3;wt%;COL;2,05;wt%;COL;15,4;wt%;COL;;;;2,3;wt%;Unknown;;;;6,9;wt%;TITR;;;;;;;0,18;wt%;AAS;2,06;wt%;AAS;9,81;wt%;Unknown;;;;5,03;wt%;Unknown;1,47;wt%;AAS;0,26;wt%;COL;;;;;;;;;;0,09;wt%;TITR;1;wt%;TITR;;;;;;;;;;6;ppm;Unknown;41;ppm;Unknown;218;ppm;Unknown;;;;78;ppm;Unknown;19;ppm;INAA;;;;0,08;ppm;INAA;;;;;;;;;;;;;;;;;;;;;;;;;;;;;;;;;;;;;;;;;;;;;;;;;;;;;;;;;;;;;;;;;;;;;;;;;;;;;;;;;;;;;;;;;;;;;;;;;;;;;;;;;;;;;;;;;;;;;;;;;20;ppm;INAA;43;ppm;INAA;;;;22;ppm;INAA;6,1;ppm;INAA;2,08;ppm;INAA;;;;1,11;ppm;INAA;;;;;;;;;;;;;3,6;ppm;INAA;0,48;ppm;INAA;0,1;ppm;TITR;0,04;ppm;INAA;;;;;;;;;;;;;;;;;;;;;;;;;19;ppm;INAA;;;;;;;241;ppm;Unknown;;;;;;;;;;;;;41;ppm;Unknown;;;;0,29;ppm;INAA;218;ppm;Unknown;;;;;;;4,7;ppm;INAA;;;;;;;;;;;;;;;;;;;;;;16;ppm;ICP;6;ppm;Unknown;;;;;;;;;;15;ppm;Unknown;3,7;ppm;Unknown;56;ppm;Unknown;;;;;;;;;;0,08;ppm;INAA;0,2;ppm;INAA;28,1;ppm;INAA;;;;350;ppm;Unknown;1;ppm;INAA;4,5;ppm;INAA;;;;;;;1,2;ppm;INAA;;;;;;;40;ppm;Unknown;78;ppm;Unknown;174;ppm;Unknown;;;;;;;;;;;;;;;;;;;;;;;;;19;ppm;INAA;19;ppm;INAA;;;;0,09;wt%;TITR;1;wt%;TITR;0,09;wt%;TITR;1;wt%;TITR;;;
GROSCAMP-W-241941;;GROSSMAN-CAMP;GROSSMAN, 1991;39,0197;-77,5644;0,001;;;CONTINENTAL_RIFT;;;;"AAS; COL; ICP; INAA; TITR; Unknown";WHOLE ROCK;IGNEOUS:VOLCANIC:MAFIC;DIABASE;;53,1;wt%;COL;2,29;wt%;COL;15;wt%;COL;;;;2,37;wt%;Unknown;;;;7,7;wt%;TITR;;;;;;;0,2;wt%;AAS;2,34;wt%;AAS;9,01;wt%;Unknown;;;;4,74;wt%;Unknown;1,79;wt%;AAS;0,27;wt%;COL;;;;;;;;;;0,1;wt%;TITR;0,9;wt%;TITR;;;;;;;;;;7;ppm;Unknown;39;ppm;Unknown;267;ppm;Unknown;;;;80;ppm;Unknown;15;ppm;INAA;;;;0,05;ppm;INAA;;;;;;;;;;;;;;;;;;;;;;;;;;;;;;;;;;;;;;;;;;;;;;;;;;;;;;;;;;;;;;;;;;;;;;;;;;;;;;;;;;;;;;;;;;;;;;;;;;;;;;;;;;;;;;;;;;;;;;;;;20,3;ppm;INAA;44;ppm;INAA;;;;22;ppm;INAA;6,1;ppm;INAA;1,8;ppm;INAA;;;;1,12;ppm;INAA;;;;;;;;;;;;;3,6;ppm;INAA;0,5;ppm;INAA;0,08;ppm;TITR;0,04;ppm;INAA;;;;;;;;;;;;;;;;;;;;;;;;;15;ppm;INAA;6,4;ppm;INAA;;;;292;ppm;Unknown;;;;;;;;;;;;;39;ppm;Unknown;2,1;ppm;Unknown;0,38;ppm;INAA;267;ppm;Unknown;;;;;;;4,8;ppm;INAA;;;;;;;;;;;;;;;;;;;;;;16;ppm;ICP;7;ppm;Unknown;;;;;;;;;;17;ppm;Unknown;3,7;ppm;Unknown;60;ppm;Unknown;;;;;;;;;;0,05;ppm;INAA;0,24;ppm;INAA;30;ppm;INAA;;;;360;ppm;Unknown;1,1;ppm;INAA;4,3;ppm;INAA;;;;;;;1,3;ppm;INAA;;;;;;;40;ppm;Unknown;80;ppm;Unknown;170;ppm;Unknown;;;;;;;;;;;;;;;;;;;;;;;;;15;ppm;INAA;15;ppm;INAA;;;;0,1;wt%;TITR;0,9;wt%;TITR;0,1;wt%;TITR;0,9;wt%;TITR;;;