SAMPLE ID;IGSN;EXPEDITION ID;REFERENCES;LATITUDE;LONGITUDE;LOC PREC;MIN ELEVATION;MAX ELEVATION;TECTONIC SETTING;MIN AGE;AGE;MAX AGE;METHOD;ANALYZED MATERIAL;ROCK TYPE;ROCK NAME;MINERAL;SIO2;SIO2 Units;SIO2 Method;TIO2;TIO2 Units;TIO2 Method;AL2O3;AL2O3 Units;AL2O3 Method;CR2O3;CR2O3 Units;CR2O3 Method;FE2O3;FE2O3 Units;FE2O3 Method;FE2O3T;FE2O3T Units;FE2O3T Method;FEO;FEO Units;FEO Method;FEOT;FEOT Units;FEOT Method;NIO;NIO Units;NIO Method;MNO;MNO Units;MNO Method;MGO;MGO Units;MGO Method;CAO;CAO Units;CAO Method;SRO;SRO Units;SRO Method;NA2O;NA2O Units;NA2O Method;K2O;K2O Units;K2O Method;P2O5;P2O5 Units;P2O5 Method;BAO;BAO Units;BAO Method;LOI;LOI Units;LOI Method;H2O;H2O Units;H2O Method;H2O_M;H2O_M Units;H2O_M Method;H2O_P;H2O_P Units;H2O_P Method;SO3;SO3 Units;SO3 Method;COO;COO Units;COO Method;MN;MN Units;MN Method;NI;NI Units;NI Method;CO;CO Units;CO Method;CU;CU Units;CU Method;CD;CD Units;CD Method;ZN;ZN Units;ZN Method;AS;AS Units;AS Method;AG;AG Units;AG Method;S;S Units;S Method;ZRO2;ZRO2 Units;ZRO2 Method;AL;AL Units;AL Method;CA;CA Units;CA Method;SR87_SR86;SR87_SR86 Units;SR87_SR86 Method;SR87_SR86_INI;SR87_SR86_INI Units;SR87_SR86_INI Method;RB87_SR86;RB87_SR86 Units;RB87_SR86 Method;ND143_ND144;ND143_ND144 Units;ND143_ND144 Method;ND143_ND144_INI;ND143_ND144_INI Units;ND143_ND144_INI Method;SM147_ND144;SM147_ND144 Units;SM147_ND144 Method;E_ND;E_ND Units;E_ND Method;E_ND_INI;E_ND_INI Units;E_ND_INI Method;PB204_PB206;PB204_PB206 Units;PB204_PB206 Method;PB206_PB204;PB206_PB204 Units;PB206_PB204 Method;PB206_PB204_INI;PB206_PB204_INI Units;PB206_PB204_INI Method;PB207_PB204;PB207_PB204 Units;PB207_PB204 Method;PB207_PB204_INI;PB207_PB204_INI Units;PB207_PB204_INI Method;PB207_PB206;PB207_PB206 Units;PB207_PB206 Method;PB208_PB204;PB208_PB204 Units;PB208_PB204 Method;PB208_PB204_INI;PB208_PB204_INI Units;PB208_PB204_INI Method;PB208_PB206;PB208_PB206 Units;PB208_PB206 Method;HF176_HF177;HF176_HF177 Units;HF176_HF177 Method;RE187_OS188;RE187_OS188 Units;RE187_OS188 Method;OS187_OS188;OS187_OS188 Units;OS187_OS188 Method;OS187_OS188_INI;OS187_OS188_INI Units;OS187_OS188_INI Method;G_OS;G_OS Units;G_OS Method;G_OS_INI;G_OS_INI Units;G_OS_INI Method;ND143_ND144_INI;ND143_ND144_INI Units;ND143_ND144_INI Method;PB206_PB204_INI;PB206_PB204_INI Units;PB206_PB204_INI Method;PB207_PB204_INI;PB207_PB204_INI Units;PB207_PB204_INI Method;PB208_PB204_INI;PB208_PB204_INI Units;PB208_PB204_INI Method;SR87_SR86_INI;SR87_SR86_INI Units;SR87_SR86_INI Method;HE;HE Units;HE Method;HE3;HE3 Units;HE3 Method;HE3_HE4_R_RA;HE3_HE4_R_RA Units;HE3_HE4_R_RA Method;AR36;AR36 Units;AR36 Method;AR40;AR40 Units;AR40 Method;AR40_AR36;AR40_AR36 Units;AR40_AR36 Method;NE20;NE20 Units;NE20 Method;NE20_NE22;NE20_NE22 Units;NE20_NE22 Method;NE21_NE22;NE21_NE22 Units;NE21_NE22 Method;LA;LA Units;LA Method;CE;CE Units;CE Method;PR;PR Units;PR Method;ND;ND Units;ND Method;SM;SM Units;SM Method;EU;EU Units;EU Method;GD;GD Units;GD Method;TB;TB Units;TB Method;DY;DY Units;DY Method;HO;HO Units;HO Method;ER;ER Units;ER Method;TM;TM Units;TM Method;YB;YB Units;YB Method;LU;LU Units;LU Method;CO2;CO2 Units;CO2 Method;F;F Units;F Method;CL;CL Units;CL Method;U238_PB204;U238_PB204 Units;U238_PB204 Method;TH230_TH232;TH230_TH232 Units;TH230_TH232 Method;RA226_ACTIVITY;RA226_ACTIVITY Units;RA226_ACTIVITY Method;PB210_RA226;PB210_RA226 Units;PB210_RA226 Method;PB210_ACTIVITY;PB210_ACTIVITY Units;PB210_ACTIVITY Method;AG;AG Units;AG Method;AL;AL Units;AL Method;AS;AS Units;AS Method;AU;AU Units;AU Method;B;B Units;B Method;BA;BA Units;BA Method;BE;BE Units;BE Method;BI;BI Units;BI Method;CA;CA Units;CA Method;CD;CD Units;CD Method;CO;CO Units;CO Method;CR;CR Units;CR Method;CS;CS Units;CS Method;CU;CU Units;CU Method;GA;GA Units;GA Method;GER;GER Units;GER Method;HF;HF Units;HF Method;INDIUM;INDIUM Units;INDIUM Method;IR;IR Units;IR Method;K;K Units;K Method;LI;LI Units;LI Method;MN;MN Units;MN Method;MO;MO Units;MO Method;NA;NA Units;NA Method;NB;NB Units;NB Method;NI;NI Units;NI Method;OS;OS Units;OS Method;P;P Units;P Method;PB;PB Units;PB Method;PD;PD Units;PD Method;PT;PT Units;PT Method;RB;RB Units;RB Method;RE;RE Units;RE Method;RH;RH Units;RH Method;RU;RU Units;RU Method;S;S Units;S Method;SB;SB Units;SB Method;SC;SC Units;SC Method;SN;SN Units;SN Method;SR;SR Units;SR Method;TA;TA Units;TA Method;TH;TH Units;TH Method;TI;TI Units;TI Method;TL;TL Units;TL Method;U;U Units;U Method;V;V Units;V Method;W;W Units;W Method;Y;Y Units;Y Method;ZN;ZN Units;ZN Method;ZR;ZR Units;ZR Method;DELTA_O18;DELTA_O18 Units;DELTA_O18 Method;DELTA_C13;DELTA_C13 Units;DELTA_C13 Method;DELTA_MO98;DELTA_MO98 Units;DELTA_MO98 Method;DELTA_ZN66;DELTA_ZN66 Units;DELTA_ZN66 Method;DELTA_ZN68;DELTA_ZN68 Units;DELTA_ZN68 Method;OS188;OS188 Units;OS188 Method;FE3P_FET;FE3P_FET Units;FE3P_FET Method;TI;TI Units;TI Method;AS;AS Units;AS Method;AS;AS Units;AS Method;GER;GER Units;GER Method;H2O_M;H2O_M Units;H2O_M Method;H2O_P;H2O_P Units;H2O_P Method;H2O_M;H2O_M Units;H2O_M Method;H2O_P;H2O_P Units;H2O_P Method;INDIUM;INDIUM Units;INDIUM Method
GROSCAMP-W-228174;;GROSSMAN-CAMP;GROSSMAN, 1991;36,0667;-78,8833;0,001;;;CONTINENTAL_RIFT;;;;"AAS; COL; ES; ICP; INAA; TITR; Unknown";WHOLE ROCK;IGNEOUS:VOLCANIC:MAFIC;DIABASE;;46,4;wt%;COL;0,4;wt%;COL;18,3;wt%;COL;;;;2,2;wt%;Unknown;;;;6,7;wt%;TITR;;;;;;;0,14;wt%;AAS;10,7;wt%;AAS;11,2;wt%;Unknown;;;;1,75;wt%;Unknown;0,16;wt%;AAS;0,07;wt%;COL;;;;;;;;;;0,39;wt%;TITR;1;wt%;TITR;;;;;;;;;;320;ppm;Unknown;61;ppm;Unknown;90;ppm;Unknown;;;;64;ppm;Unknown;;;;;;;0;ppm;INAA;;;;;;;;;;;;;;;;;;;;;;;;;;;;;;;;;;;;;;;;;;;;;;;;;;;;;;;;;;;;;;;;;;;;;;;;;;;;;;;;;;;;;;;;;;;;;;;;;;;;;;;;;;;;;;;;;;;;;;;;;3,3;ppm;INAA;7,1;ppm;INAA;;;;5,6;ppm;INAA;1,3;ppm;INAA;0,52;ppm;INAA;;;;0,36;ppm;INAA;;;;;;;;;;;;;1,9;ppm;INAA;0,28;ppm;INAA;0,06;ppm;TITR;;;;;;;;;;;;;;;;;;;;;;;;;;;;;;;;;;2;ppm;ES;123;ppm;Unknown;;;;;;;;;;;;;61;ppm;Unknown;370;ppm;Unknown;;;;90;ppm;Unknown;;;;;;;0,94;ppm;INAA;;;;;;;;;;;;;;;;;;;;;;1;ppm;ICP;320;ppm;Unknown;;;;;;;;;;6,6;ppm;Unknown;15;ppm;Unknown;5;ppm;Unknown;;;;;;;;;;0;ppm;INAA;;;;29,5;ppm;INAA;;;;156;ppm;Unknown;0,072;ppm;INAA;;;;;;;;;;;;;;;;;;;20;ppm;Unknown;64;ppm;Unknown;47;ppm;Unknown;;;;;;;;;;;;;;;;;;;;;;;;;;;;;;;;;;0,39;wt%;TITR;1;wt%;TITR;0,39;wt%;TITR;1;wt%;TITR;;;
GROSCAMP-W-228175;;GROSSMAN-CAMP;GROSSMAN, 1991;36,0667;-78,8833;0,001;;;CONTINENTAL_RIFT;;;;"AAS; COL; ES; ICP; INAA; TITR; Unknown";WHOLE ROCK;IGNEOUS:VOLCANIC:MAFIC;DIABASE;;46,5;wt%;COL;0,49;wt%;COL;17,9;wt%;COL;;;;1,9;wt%;Unknown;;;;7,8;wt%;TITR;;;;;;;0,15;wt%;AAS;11,2;wt%;AAS;10,3;wt%;Unknown;;;;1,75;wt%;Unknown;0,18;wt%;AAS;0,09;wt%;COL;;;;;;;;;;0,54;wt%;TITR;0,96;wt%;TITR;;;;;;;;;;340;ppm;Unknown;63;ppm;Unknown;95;ppm;Unknown;;;;71;ppm;Unknown;;;;;;;0,03;ppm;INAA;;;;;;;;;;;;;;;;;;;;;;;;;;;;;;;;;;;;;;;;;;;;;;;;;;;;;;;;;;;;;;;;;;;;;;;;;;;;;;;;;;;;;;;;;;;;;;;;;;;;;;;;;;;;;;;;;;;;;;;;;4,2;ppm;INAA;8,7;ppm;INAA;;;;5;ppm;INAA;1,57;ppm;INAA;0,56;ppm;INAA;;;;0,37;ppm;INAA;;;;;;;;;;;;;2,2;ppm;INAA;0,34;ppm;INAA;0,01;ppm;TITR;0;ppm;INAA;;;;;;;;;;;;;;;;;;;;;;;;;;;;;;;2;ppm;ES;111;ppm;Unknown;;;;;;;;;;;;;63;ppm;Unknown;211;ppm;Unknown;0,23;ppm;INAA;95;ppm;Unknown;;;;;;;1,1;ppm;INAA;;;;;;;;;;;;;;;;;;;;;;1,3;ppm;ICP;340;ppm;Unknown;;;;;;;;;;6,6;ppm;Unknown;13;ppm;Unknown;5;ppm;Unknown;;;;;;;;;;0,03;ppm;INAA;;;;25,1;ppm;INAA;;;;153;ppm;Unknown;0,097;ppm;INAA;0,28;ppm;INAA;;;;;;;;;;;;;;;;21;ppm;Unknown;71;ppm;Unknown;49;ppm;Unknown;;;;;;;;;;;;;;;;;;;;;;;;;;;;;;;;;;0,54;wt%;TITR;0,96;wt%;TITR;0,54;wt%;TITR;0,96;wt%;TITR;;;
GROSCAMP-W-228176;;GROSSMAN-CAMP;GROSSMAN, 1991;36,0667;-78,8833;0,001;;;CONTINENTAL_RIFT;;;;"AAS; COL; ES; ICP; INAA; TITR; Unknown";WHOLE ROCK;IGNEOUS:VOLCANIC:MAFIC;DIABASE;;46,6;wt%;COL;0,52;wt%;COL;18,6;wt%;COL;;;;2,1;wt%;Unknown;;;;7;wt%;TITR;;;;;;;0,14;wt%;AAS;9,8;wt%;AAS;11;wt%;Unknown;;;;1,75;wt%;Unknown;0,14;wt%;AAS;0,1;wt%;COL;;;;;;;;;;0,47;wt%;TITR;0,83;wt%;TITR;;;;;;;;;;270;ppm;Unknown;56;ppm;Unknown;85;ppm;Unknown;;;;59;ppm;Unknown;;;;;;;0,02;ppm;INAA;;;;;;;;;;;;;;;;;;;;;;;;;;;;;;;;;;;;;;;;;;;;;;;;;;;;;;;;;;;;;;;;;;;;;;;;;;;;;;;;;;;;;;;;;;;;;;;;;;;;;;;;;;;;;;;;;;;;;;;;;4,7;ppm;INAA;9,6;ppm;INAA;;;;;;;1,74;ppm;INAA;0,63;ppm;INAA;;;;0,43;ppm;INAA;;;;;;;;;;;;;2,4;ppm;INAA;0,36;ppm;INAA;0,01;ppm;TITR;0;ppm;INAA;;;;;;;;;;;;;;;;;;;;;;;;;;;;;;;3;ppm;ES;138;ppm;Unknown;;;;;;;;;;;;;56;ppm;Unknown;164;ppm;Unknown;;;;85;ppm;Unknown;;;;;;;1,3;ppm;INAA;;;;;;;;;;;;;;;;;;;;;;1,5;ppm;ICP;270;ppm;Unknown;;;;;;;;;;4,8;ppm;Unknown;9;ppm;Unknown;5;ppm;Unknown;;;;;;;;;;0,02;ppm;INAA;;;;28,3;ppm;INAA;;;;162;ppm;Unknown;0,11;ppm;INAA;0,36;ppm;INAA;;;;;;;;;;;;;;;;24;ppm;Unknown;59;ppm;Unknown;57;ppm;Unknown;;;;;;;;;;;;;;;;;;;;;;;;;;;;;;;;;;0,47;wt%;TITR;0,83;wt%;TITR;0,47;wt%;TITR;0,83;wt%;TITR;;;
GROSCAMP-W-228180;;GROSSMAN-CAMP;GROSSMAN, 1991;38,55;-77,75;0,001;;;CONTINENTAL_RIFT;;;;"AAS; COL; ES; ICP; INAA; TITR; Unknown";WHOLE ROCK;IGNEOUS:VOLCANIC:MAFIC;DIABASE;;51,8;wt%;COL;1,1;wt%;COL;14,9;wt%;COL;;;;2,8;wt%;Unknown;;;;9,4;wt%;TITR;;;;;;;0,2;wt%;AAS;4,9;wt%;AAS;9,8;wt%;Unknown;;;;2,29;wt%;Unknown;0,48;wt%;AAS;0,16;wt%;COL;;;;;;;;;;0,45;wt%;TITR;0,72;wt%;TITR;;;;;;;;;;18;ppm;Unknown;43;ppm;Unknown;115;ppm;Unknown;;;;109;ppm;Unknown;;;;;;;0,03;ppm;INAA;;;;;;;;;;;;;;;;;;;;;;;;;;;;;;;;;;;;;;;;;;;;;;;;;;;;;;;;;;;;;;;;;;;;;;;;;;;;;;;;;;;;;;;;;;;;;;;;;;;;;;;;;;;;;;;;;;;;;;;;;8,8;ppm;INAA;18;ppm;INAA;;;;;;;3,2;ppm;INAA;0,98;ppm;INAA;;;;0,64;ppm;INAA;;;;;;;;;;;;;3;ppm;INAA;0,46;ppm;INAA;0,02;ppm;TITR;0,02;ppm;INAA;0,09;ppm;INAA;;;;;;;;;;;;;;;;;;;;;;;;;;;;13;ppm;ES;135;ppm;Unknown;;;;;;;;;;;;;43;ppm;Unknown;26;ppm;Unknown;0,89;ppm;INAA;115;ppm;Unknown;;;;;;;2,3;ppm;INAA;;;;;;;;;;;;;;;;;;;;;;4,6;ppm;ICP;18;ppm;Unknown;;;;;;;;;;1,2;ppm;Unknown;3,2;ppm;Unknown;19;ppm;Unknown;;;;1,7;ppm;Unknown;;;;0,03;ppm;INAA;;;;43;ppm;INAA;;;;170;ppm;Unknown;0,32;ppm;INAA;1,8;ppm;INAA;;;;;;;;;;;;;;;;30;ppm;Unknown;109;ppm;Unknown;92;ppm;Unknown;;;;;;;;;;;;;;;;;;;;;;;;;;;;;;;;;;0,45;wt%;TITR;0,72;wt%;TITR;0,45;wt%;TITR;0,72;wt%;TITR;;;
GROSCAMP-W-228181;;GROSSMAN-CAMP;GROSSMAN, 1991;38,55;-77,7333;0,001;;;CONTINENTAL_RIFT;;;;"AAS; COL; ES; ICP; INAA; TITR; Unknown";WHOLE ROCK;IGNEOUS:VOLCANIC:MAFIC;DIABASE;;56,8;wt%;COL;2,2;wt%;COL;12;wt%;COL;;;;5,9;wt%;Unknown;;;;7,8;wt%;TITR;;;;;;;0,19;wt%;AAS;1,8;wt%;AAS;4,6;wt%;Unknown;;;;3,1;wt%;Unknown;2,9;wt%;AAS;0,44;wt%;COL;;;;;;;;;;0,4;wt%;TITR;0,9;wt%;TITR;;;;;;;;;;13;ppm;Unknown;28,3;ppm;Unknown;221;ppm;Unknown;;;;169;ppm;Unknown;;;;;;;0,02;ppm;INAA;;;;;;;;;;;;;;;;;;;;;;;;;;;;;;;;;;;;;;;;;;;;;;;;;;;;;;;;;;;;;;;;;;;;;;;;;;;;;;;;;;;;;;;;;;;;;;;;;;;;;;;;;;;;;;;;;;;;;;;;;34;ppm;INAA;67;ppm;INAA;;;;36;ppm;INAA;11;ppm;INAA;2,36;ppm;INAA;;;;1,76;ppm;INAA;;;;;;;;;;;;;5,5;ppm;INAA;0,83;ppm;INAA;0,04;ppm;TITR;0,06;ppm;INAA;0,1;ppm;INAA;;;;;;;;;;;;;;;;;;;;;;;;;;;;33;ppm;ES;800;ppm;Unknown;;;;;;;;;;;;;28,3;ppm;Unknown;5,5;ppm;Unknown;0,44;ppm;INAA;221;ppm;Unknown;;;;;;;7,6;ppm;INAA;;;;;;;;;;;;;;;;;;;;;;24;ppm;ICP;13;ppm;Unknown;;;;;;;;;;18;ppm;Unknown;1,4;ppm;Unknown;95;ppm;Unknown;;;;;;;;;;0,02;ppm;INAA;0,44;ppm;INAA;31;ppm;INAA;;;;257;ppm;Unknown;1,7;ppm;INAA;7,4;ppm;INAA;;;;;;;1,7;ppm;INAA;;;;;;;58;ppm;Unknown;169;ppm;Unknown;310;ppm;Unknown;;;;;;;;;;;;;;;;;;;;;;;;;;;;;;;;;;0,4;wt%;TITR;0,9;wt%;TITR;0,4;wt%;TITR;0,9;wt%;TITR;;;
GROSCAMP-W-228182;;GROSSMAN-CAMP;GROSSMAN, 1991;38,55;-77,7333;0,001;;;CONTINENTAL_RIFT;;;;"AAS; COL; ES; ICP; INAA; TITR; Unknown";WHOLE ROCK;IGNEOUS:VOLCANIC:MAFIC;DIABASE;;63,4;wt%;COL;1,1;wt%;COL;12,4;wt%;COL;;;;4,6;wt%;Unknown;;;;5,9;wt%;TITR;;;;;;;0,16;wt%;AAS;0,98;wt%;AAS;3,2;wt%;Unknown;;;;5,12;wt%;Unknown;0,11;wt%;AAS;0,17;wt%;COL;;;;;;;;;;0,95;wt%;TITR;1,4;wt%;TITR;;;;;;;;;;12;ppm;Unknown;18,2;ppm;Unknown;53;ppm;Unknown;;;;63;ppm;Unknown;;;;;;;0,01;ppm;INAA;;;;;;;;;;;;;;;;;;;;;;;;;;;;;;;;;;;;;;;;;;;;;;;;;;;;;;;;;;;;;;;;;;;;;;;;;;;;;;;;;;;;;;;;;;;;;;;;;;;;;;;;;;;;;;;;;;;;;;;;;32;ppm;INAA;81;ppm;INAA;;;;39;ppm;INAA;10,5;ppm;INAA;2,33;ppm;INAA;;;;1,9;ppm;INAA;;;;;;;;;;;;;7,1;ppm;INAA;1;ppm;INAA;0,01;ppm;TITR;0,02;ppm;INAA;0,18;ppm;INAA;;;;;;;;;;;;;;;;;;;;;;;;;;;;10;ppm;ES;44;ppm;Unknown;;;;;;;;;;;;;18,2;ppm;Unknown;4,1;ppm;Unknown;;;;53;ppm;Unknown;;;;;;;11,8;ppm;INAA;;;;;;;;;;;;;;;;;;;;;;36;ppm;ICP;12;ppm;Unknown;;;;;;;;;;0,6;ppm;Unknown;0,4;ppm;Unknown;8,1;ppm;Unknown;;;;;;;;;;0,01;ppm;INAA;;;;16,8;ppm;INAA;;;;41;ppm;Unknown;2,64;ppm;INAA;12;ppm;INAA;;;;;;;1,6;ppm;INAA;;;;;;;62;ppm;Unknown;63;ppm;Unknown;470;ppm;Unknown;;;;;;;;;;;;;;;;;;;;;;;;;;;;;;;;;;0,95;wt%;TITR;1,4;wt%;TITR;0,95;wt%;TITR;1,4;wt%;TITR;;;
GROSCAMP-W-228183;;GROSSMAN-CAMP;GROSSMAN, 1991;38,5167;-77,7167;0,001;;;CONTINENTAL_RIFT;;;;"AAS; COL; ES; ICP; INAA; TITR; Unknown";WHOLE ROCK;IGNEOUS:VOLCANIC:MAFIC;DIABASE;;52,3;wt%;COL;0,83;wt%;COL;14;wt%;COL;;;;2,4;wt%;Unknown;;;;6,8;wt%;TITR;;;;;;;0,16;wt%;AAS;9,4;wt%;AAS;11;wt%;Unknown;;;;1,48;wt%;Unknown;0,62;wt%;AAS;0,14;wt%;COL;;;;;;;;;;0,6;wt%;TITR;0,39;wt%;TITR;;;;;;;;;;110;ppm;Unknown;47;ppm;Unknown;81;ppm;Unknown;;;;69;ppm;Unknown;;;;;;;0,02;ppm;INAA;;;;;;;;;;;;;;;;;;;;;;;;;;;;;;;;;;;;;;;;;;;;;;;;;;;;;;;;;;;;;;;;;;;;;;;;;;;;;;;;;;;;;;;;;;;;;;;;;;;;;;;;;;;;;;;;;;;;;;;;;8,3;ppm;INAA;18;ppm;INAA;;;;11;ppm;INAA;2,8;ppm;INAA;0,82;ppm;INAA;;;;0,56;ppm;INAA;;;;;;;;;;;;;1,8;ppm;INAA;0,27;ppm;INAA;0,02;ppm;TITR;0,02;ppm;INAA;0,01;ppm;INAA;;;;;;;;;;;;;;;;;;;;;;;;;;;;12;ppm;ES;178;ppm;Unknown;;;;;;;;;;;;;47;ppm;Unknown;620;ppm;Unknown;0,84;ppm;INAA;81;ppm;Unknown;;;;;;;1,9;ppm;INAA;;;;;;;;;;;;;;;;;;;;;;5,2;ppm;ICP;110;ppm;Unknown;;;;;;;;;;7,6;ppm;Unknown;18;ppm;Unknown;25;ppm;Unknown;;;;;;;;;;0,02;ppm;INAA;;;;36;ppm;INAA;;;;200;ppm;Unknown;0,41;ppm;INAA;1,7;ppm;INAA;;;;;;;0,56;ppm;INAA;;;;;;;20;ppm;Unknown;69;ppm;Unknown;84;ppm;Unknown;;;;;;;;;;;;;;;;;;;;;;;;;;;;;;;;;;0,6;wt%;TITR;0,39;wt%;TITR;0,6;wt%;TITR;0,39;wt%;TITR;;;
GROSCAMP-W-228184;;GROSSMAN-CAMP;GROSSMAN, 1991;38,4333;-77,9667;0,001;;;CONTINENTAL_RIFT;;;;"AAS; COL; ES; ICP; INAA; TITR; Unknown";WHOLE ROCK;IGNEOUS:VOLCANIC:MAFIC;DIABASE;;52,2;wt%;COL;0,7;wt%;COL;14,5;wt%;COL;;;;1,4;wt%;Unknown;;;;6,8;wt%;TITR;;;;;;;0,15;wt%;AAS;9;wt%;AAS;11,8;wt%;Unknown;;;;1,89;wt%;Unknown;0,48;wt%;AAS;0,1;wt%;COL;;;;;;;;;;0,4;wt%;TITR;0,36;wt%;TITR;;;;;;;;;;110;ppm;Unknown;45;ppm;Unknown;76;ppm;Unknown;;;;63;ppm;Unknown;;;;;;;;;;;;;;;;;;;;;;;;;;;;;;;;;;;;;;;;;;;;;;;;;;;;;;;;;;;;;;;;;;;;;;;;;;;;;;;;;;;;;;;;;;;;;;;;;;;;;;;;;;;;;;;;;;;;;;;;;;;;;;;;;;7,4;ppm;INAA;15;ppm;INAA;;;;9,3;ppm;INAA;2,39;ppm;INAA;0,79;ppm;INAA;;;;0,45;ppm;INAA;;;;;;;;;;;;;1,3;ppm;INAA;0,24;ppm;INAA;0,01;ppm;TITR;0,01;ppm;INAA;0;ppm;INAA;;;;;;;;;;;;;;;;;;;;;;;;;;;;7;ppm;ES;131;ppm;Unknown;;;;;;;;;;;;;45;ppm;Unknown;510;ppm;Unknown;0,68;ppm;INAA;76;ppm;Unknown;;;;;;;1,7;ppm;INAA;;;;;;;;;;;;;;;;;;;;;;4;ppm;ICP;110;ppm;Unknown;;;;;;;;;;3;ppm;Unknown;14;ppm;Unknown;21;ppm;Unknown;;;;;;;;;;;;;;;;37;ppm;INAA;;;;193;ppm;Unknown;0,34;ppm;INAA;1,4;ppm;INAA;;;;;;;;;;;;;;;;19;ppm;Unknown;63;ppm;Unknown;75;ppm;Unknown;;;;;;;;;;;;;;;;;;;;;;;;;;;;;;;;;;0,4;wt%;TITR;0,36;wt%;TITR;0,4;wt%;TITR;0,36;wt%;TITR;;;
GROSCAMP-W-228185;;GROSSMAN-CAMP;GROSSMAN, 1991;38,4667;-77,8833;0,001;;;CONTINENTAL_RIFT;;;;"AAS; COL; ES; ICP; INAA; TITR; Unknown";WHOLE ROCK;IGNEOUS:VOLCANIC:MAFIC;DIABASE;;52,1;wt%;COL;1;wt%;COL;13,8;wt%;COL;;;;2;wt%;Unknown;;;;8,2;wt%;TITR;;;;;;;0,17;wt%;AAS;8,3;wt%;AAS;10,5;wt%;Unknown;;;;1,75;wt%;Unknown;0,56;wt%;AAS;0,14;wt%;COL;;;;;;;;;;0,52;wt%;TITR;0,44;wt%;TITR;;;;;;;;;;110;ppm;Unknown;50;ppm;Unknown;126;ppm;Unknown;;;;90;ppm;Unknown;;;;;;;;;;;;;;;;;;;;;;;;;;;;;;;;;;;;;;;;;;;;;;;;;;;;;;;;;;;;;;;;;;;;;;;;;;;;;;;;;;;;;;;;;;;;;;;;;;;;;;;;;;;;;;;;;;;;;;;;;;;;;;;;;;11;ppm;INAA;22,5;ppm;INAA;;;;10;ppm;INAA;3,4;ppm;INAA;1,04;ppm;INAA;;;;0,57;ppm;INAA;;;;;;;;;;;;;2,3;ppm;INAA;0,35;ppm;INAA;0,01;ppm;TITR;0,02;ppm;INAA;0,05;ppm;INAA;;;;;;;;;;;;;;;;;;;;;;;;;;;;11;ppm;ES;162;ppm;Unknown;;;;;;;;;;;;;50;ppm;Unknown;370;ppm;Unknown;0,96;ppm;INAA;126;ppm;Unknown;;;;;;;2,4;ppm;INAA;;;;;;;;;;;;;;;;;;;;;;6,6;ppm;ICP;110;ppm;Unknown;;;;;;;;;;12;ppm;Unknown;13;ppm;Unknown;35;ppm;Unknown;;;;;;;;;;;;;;;;37;ppm;INAA;;;;191;ppm;Unknown;0,51;ppm;INAA;2,2;ppm;INAA;;;;;;;0,78;ppm;INAA;;;;;;;27;ppm;Unknown;90;ppm;Unknown;106;ppm;Unknown;;;;;;;;;;;;;;;;;;;;;;;;;;;;;;;;;;0,52;wt%;TITR;0,44;wt%;TITR;0,52;wt%;TITR;0,44;wt%;TITR;;;
GROSCAMP-W-228186;;GROSSMAN-CAMP;GROSSMAN, 1991;38,3333;-78,0333;0,001;;;CONTINENTAL_RIFT;;;;"AAS; COL; ES; ICP; INAA; TITR; Unknown";WHOLE ROCK;IGNEOUS:VOLCANIC:MAFIC;DIABASE;;51,6;wt%;COL;0,48;wt%;COL;11,4;wt%;COL;;;;1;wt%;Unknown;;;;7,3;wt%;TITR;;;;;;;0,17;wt%;AAS;13;wt%;AAS;12;wt%;Unknown;;;;1,12;wt%;Unknown;0,16;wt%;AAS;0,07;wt%;COL;;;;;;;;;;0,41;wt%;TITR;0,08;wt%;TITR;;;;;;;;;;170;ppm;Unknown;55;ppm;Unknown;47;ppm;Unknown;;;;59;ppm;Unknown;;;;;;;;;;;;;;;;;;;;;;;;;;;;;;;;;;;;;;;;;;;;;;;;;;;;;;;;;;;;;;;;;;;;;;;;;;;;;;;;;;;;;;;;;;;;;;;;;;;;;;;;;;;;;;;;;;;;;;;;;;;;;;;;;;4;ppm;INAA;8,8;ppm;INAA;;;;6,8;ppm;INAA;1,6;ppm;INAA;0,51;ppm;INAA;;;;0,29;ppm;INAA;;;;;;;;;;;;;0,9;ppm;INAA;0,19;ppm;INAA;0,02;ppm;TITR;0,01;ppm;INAA;0;ppm;INAA;;;;;;;;;;;;;;;;;;;;;;;;;;;;3;ppm;ES;86;ppm;Unknown;;;;;;;;;;;;;55;ppm;Unknown;980;ppm;Unknown;0,36;ppm;INAA;47;ppm;Unknown;;;;;;;1,1;ppm;INAA;;;;;;;;;;;;;;;;;;;;;;2,2;ppm;ICP;170;ppm;Unknown;;;;;;;;;;3,8;ppm;Unknown;23;ppm;Unknown;10;ppm;Unknown;;;;;;;;;;;;;;;;43;ppm;INAA;;;;128;ppm;Unknown;0,18;ppm;INAA;0,72;ppm;INAA;;;;;;;;;;;;;;;;16;ppm;Unknown;59;ppm;Unknown;51;ppm;Unknown;;;;;;;;;;;;;;;;;;;;;;;;;;;;;;;;;;0,41;wt%;TITR;0,08;wt%;TITR;0,41;wt%;TITR;0,08;wt%;TITR;;;
GROSCAMP-W-228187;;GROSSMAN-CAMP;GROSSMAN, 1991;38,3333;-78,0167;0,001;;;CONTINENTAL_RIFT;;;;"AAS; COL; ES; ICP; INAA; TITR; Unknown";WHOLE ROCK;IGNEOUS:VOLCANIC:MAFIC;DIABASE;;52,1;wt%;COL;0,65;wt%;COL;10,3;wt%;COL;;;;1,8;wt%;Unknown;;;;8,6;wt%;TITR;;;;;;;0,19;wt%;AAS;14,6;wt%;AAS;9,4;wt%;Unknown;;;;1,06;wt%;Unknown;0,3;wt%;AAS;0,1;wt%;COL;;;;;;;;;;0,51;wt%;TITR;0,37;wt%;TITR;;;;;;;;;;220;ppm;Unknown;66;ppm;Unknown;77;ppm;Unknown;;;;80;ppm;Unknown;;;;;;;;;;;;;;;;;;;;;;;;;;;;;;;;;;;;;;;;;;;;;;;;;;;;;;;;;;;;;;;;;;;;;;;;;;;;;;;;;;;;;;;;;;;;;;;;;;;;;;;;;;;;;;;;;;;;;;;;;;;;;;;;;;6,3;ppm;INAA;14;ppm;INAA;;;;9,5;ppm;INAA;2,1;ppm;INAA;0,62;ppm;INAA;;;;0,36;ppm;INAA;;;;;;;;;;;;;1,4;ppm;INAA;0,24;ppm;INAA;0,02;ppm;TITR;0,01;ppm;INAA;0,01;ppm;INAA;;;;;;;;;;;;;;;;;;;;;;;;;;;;3;ppm;ES;106;ppm;Unknown;;;;;;;;;;;;;66;ppm;Unknown;1020;ppm;Unknown;0,58;ppm;INAA;77;ppm;Unknown;;;;;;;1,5;ppm;INAA;;;;;;;;;;;;;;;;;;;;;;3,7;ppm;ICP;220;ppm;Unknown;;;;;;;;;;5,6;ppm;Unknown;11;ppm;Unknown;16;ppm;Unknown;;;;;;;;;;;;;;;;37;ppm;INAA;;;;123;ppm;Unknown;0,31;ppm;INAA;1,2;ppm;INAA;;;;;;;;;;;;;;;;17;ppm;Unknown;80;ppm;Unknown;64;ppm;Unknown;;;;;;;;;;;;;;;;;;;;;;;;;;;;;;;;;;0,51;wt%;TITR;0,37;wt%;TITR;0,51;wt%;TITR;0,37;wt%;TITR;;;
GROSCAMP-W-228188;;GROSSMAN-CAMP;GROSSMAN, 1991;40,2;-76,8667;0,001;;;CONTINENTAL_RIFT;;;;"AAS; COL; ES; ICP; INAA; TITR; Unknown";WHOLE ROCK;IGNEOUS:VOLCANIC:MAFIC;DIABASE;;52;wt%;COL;1,1;wt%;COL;14;wt%;COL;;;;2,4;wt%;Unknown;;;;7,6;wt%;TITR;;;;;;;0,17;wt%;AAS;7,2;wt%;AAS;10,3;wt%;Unknown;;;;2,29;wt%;Unknown;0,83;wt%;AAS;0,16;wt%;COL;;;;;;;;;;1,5;wt%;TITR;0,2;wt%;TITR;;;;;;;;;;73;ppm;Unknown;46;ppm;Unknown;128;ppm;Unknown;;;;80;ppm;Unknown;;;;;;;0,01;ppm;INAA;;;;;;;;;;;;;;;;;;;;;;;;;;;;;;;;;;;;;;;;;;;;;;;;;;;;;;;;;;;;;;;;;;;;;;;;;;;;;;;;;;;;;;;;;;;;;;;;;;;;;;;;;;;;;;;;;;;;;;;;;11;ppm;INAA;24;ppm;INAA;;;;13;ppm;INAA;3,6;ppm;INAA;1,08;ppm;INAA;;;;0,64;ppm;INAA;;;;;;;;;;;;;2,3;ppm;INAA;0,32;ppm;INAA;0,03;ppm;TITR;0,03;ppm;INAA;0,04;ppm;INAA;;;;;;;;;;;;;;;;;;;;;;;;;;;;15;ppm;ES;215;ppm;Unknown;;;;;;;;;;;;;46;ppm;Unknown;289;ppm;Unknown;0,98;ppm;INAA;128;ppm;Unknown;;;;;;;2,55;ppm;INAA;;;;;;;;;;;;;;;;;;;;;;7;ppm;ICP;73;ppm;Unknown;;;;;;;;;;9,2;ppm;Unknown;7,9;ppm;Unknown;30;ppm;Unknown;;;;1,5;ppm;Unknown;;;;0,01;ppm;INAA;;;;38;ppm;INAA;;;;196;ppm;Unknown;0,53;ppm;INAA;2,35;ppm;INAA;;;;;;;0,71;ppm;INAA;;;;;;;23;ppm;Unknown;80;ppm;Unknown;138;ppm;Unknown;;;;;;;;;;;;;;;;;;;;;;;;;;;;;;;;;;1,5;wt%;TITR;0,2;wt%;TITR;1,5;wt%;TITR;0,2;wt%;TITR;;;