SAMPLE ID;IGSN;EXPEDITION ID;REFERENCES;LATITUDE;LONGITUDE;LOC PREC;MIN ELEVATION;MAX ELEVATION;TECTONIC SETTING;MIN AGE;AGE;MAX AGE;METHOD;ANALYZED MATERIAL;ROCK TYPE;ROCK NAME;MINERAL;SIO2;SIO2 Units;SIO2 Method;TIO2;TIO2 Units;TIO2 Method;AL2O3;AL2O3 Units;AL2O3 Method;CR2O3;CR2O3 Units;CR2O3 Method;FE2O3;FE2O3 Units;FE2O3 Method;FE2O3T;FE2O3T Units;FE2O3T Method;FEO;FEO Units;FEO Method;FEOT;FEOT Units;FEOT Method;NIO;NIO Units;NIO Method;MNO;MNO Units;MNO Method;MGO;MGO Units;MGO Method;CAO;CAO Units;CAO Method;SRO;SRO Units;SRO Method;NA2O;NA2O Units;NA2O Method;K2O;K2O Units;K2O Method;P2O5;P2O5 Units;P2O5 Method;BAO;BAO Units;BAO Method;LOI;LOI Units;LOI Method;H2O;H2O Units;H2O Method;H2O_M;H2O_M Units;H2O_M Method;H2O_P;H2O_P Units;H2O_P Method;SO3;SO3 Units;SO3 Method;COO;COO Units;COO Method;MN;MN Units;MN Method;NI;NI Units;NI Method;CO;CO Units;CO Method;CU;CU Units;CU Method;CD;CD Units;CD Method;ZN;ZN Units;ZN Method;AS;AS Units;AS Method;AG;AG Units;AG Method;S;S Units;S Method;ZRO2;ZRO2 Units;ZRO2 Method;AL;AL Units;AL Method;CA;CA Units;CA Method;SR87_SR86;SR87_SR86 Units;SR87_SR86 Method;SR87_SR86_INI;SR87_SR86_INI Units;SR87_SR86_INI Method;RB87_SR86;RB87_SR86 Units;RB87_SR86 Method;ND143_ND144;ND143_ND144 Units;ND143_ND144 Method;ND143_ND144_INI;ND143_ND144_INI Units;ND143_ND144_INI Method;SM147_ND144;SM147_ND144 Units;SM147_ND144 Method;E_ND;E_ND Units;E_ND Method;E_ND_INI;E_ND_INI Units;E_ND_INI Method;PB204_PB206;PB204_PB206 Units;PB204_PB206 Method;PB206_PB204;PB206_PB204 Units;PB206_PB204 Method;PB206_PB204_INI;PB206_PB204_INI Units;PB206_PB204_INI Method;PB207_PB204;PB207_PB204 Units;PB207_PB204 Method;PB207_PB204_INI;PB207_PB204_INI Units;PB207_PB204_INI Method;PB207_PB206;PB207_PB206 Units;PB207_PB206 Method;PB208_PB204;PB208_PB204 Units;PB208_PB204 Method;PB208_PB204_INI;PB208_PB204_INI Units;PB208_PB204_INI Method;PB208_PB206;PB208_PB206 Units;PB208_PB206 Method;HF176_HF177;HF176_HF177 Units;HF176_HF177 Method;RE187_OS188;RE187_OS188 Units;RE187_OS188 Method;OS187_OS188;OS187_OS188 Units;OS187_OS188 Method;OS187_OS188_INI;OS187_OS188_INI Units;OS187_OS188_INI Method;G_OS;G_OS Units;G_OS Method;G_OS_INI;G_OS_INI Units;G_OS_INI Method;ND143_ND144_INI;ND143_ND144_INI Units;ND143_ND144_INI Method;PB206_PB204_INI;PB206_PB204_INI Units;PB206_PB204_INI Method;PB207_PB204_INI;PB207_PB204_INI Units;PB207_PB204_INI Method;PB208_PB204_INI;PB208_PB204_INI Units;PB208_PB204_INI Method;SR87_SR86_INI;SR87_SR86_INI Units;SR87_SR86_INI Method;HE;HE Units;HE Method;HE3;HE3 Units;HE3 Method;HE3_HE4_R_RA;HE3_HE4_R_RA Units;HE3_HE4_R_RA Method;AR36;AR36 Units;AR36 Method;AR40;AR40 Units;AR40 Method;AR40_AR36;AR40_AR36 Units;AR40_AR36 Method;NE20;NE20 Units;NE20 Method;NE20_NE22;NE20_NE22 Units;NE20_NE22 Method;NE21_NE22;NE21_NE22 Units;NE21_NE22 Method;LA;LA Units;LA Method;CE;CE Units;CE Method;PR;PR Units;PR Method;ND;ND Units;ND Method;SM;SM Units;SM Method;EU;EU Units;EU Method;GD;GD Units;GD Method;TB;TB Units;TB Method;DY;DY Units;DY Method;HO;HO Units;HO Method;ER;ER Units;ER Method;TM;TM Units;TM Method;YB;YB Units;YB Method;LU;LU Units;LU Method;CO2;CO2 Units;CO2 Method;F;F Units;F Method;CL;CL Units;CL Method;U238_PB204;U238_PB204 Units;U238_PB204 Method;TH230_TH232;TH230_TH232 Units;TH230_TH232 Method;RA226_ACTIVITY;RA226_ACTIVITY Units;RA226_ACTIVITY Method;PB210_RA226;PB210_RA226 Units;PB210_RA226 Method;PB210_ACTIVITY;PB210_ACTIVITY Units;PB210_ACTIVITY Method;AG;AG Units;AG Method;AL;AL Units;AL Method;AS;AS Units;AS Method;AU;AU Units;AU Method;B;B Units;B Method;BA;BA Units;BA Method;BE;BE Units;BE Method;BI;BI Units;BI Method;CA;CA Units;CA Method;CD;CD Units;CD Method;CO;CO Units;CO Method;CR;CR Units;CR Method;CS;CS Units;CS Method;CU;CU Units;CU Method;GA;GA Units;GA Method;GER;GER Units;GER Method;HF;HF Units;HF Method;INDIUM;INDIUM Units;INDIUM Method;IR;IR Units;IR Method;K;K Units;K Method;LI;LI Units;LI Method;MN;MN Units;MN Method;MO;MO Units;MO Method;NA;NA Units;NA Method;NB;NB Units;NB Method;NI;NI Units;NI Method;OS;OS Units;OS Method;P;P Units;P Method;PB;PB Units;PB Method;PD;PD Units;PD Method;PT;PT Units;PT Method;RB;RB Units;RB Method;RE;RE Units;RE Method;RH;RH Units;RH Method;RU;RU Units;RU Method;S;S Units;S Method;SB;SB Units;SB Method;SC;SC Units;SC Method;SN;SN Units;SN Method;SR;SR Units;SR Method;TA;TA Units;TA Method;TH;TH Units;TH Method;TI;TI Units;TI Method;TL;TL Units;TL Method;U;U Units;U Method;V;V Units;V Method;W;W Units;W Method;Y;Y Units;Y Method;ZN;ZN Units;ZN Method;ZR;ZR Units;ZR Method;DELTA_O18;DELTA_O18 Units;DELTA_O18 Method;DELTA_C13;DELTA_C13 Units;DELTA_C13 Method;DELTA_MO98;DELTA_MO98 Units;DELTA_MO98 Method;DELTA_ZN66;DELTA_ZN66 Units;DELTA_ZN66 Method;DELTA_ZN68;DELTA_ZN68 Units;DELTA_ZN68 Method;OS188;OS188 Units;OS188 Method;FE3P_FET;FE3P_FET Units;FE3P_FET Method;TI;TI Units;TI Method;AS;AS Units;AS Method;AS;AS Units;AS Method;GER;GER Units;GER Method;H2O_M;H2O_M Units;H2O_M Method;H2O_P;H2O_P Units;H2O_P Method;H2O_M;H2O_M Units;H2O_M Method;H2O_P;H2O_P Units;H2O_P Method;INDIUM;INDIUM Units;INDIUM Method
GROSCAMP-W-235456;;GROSSMAN-CAMP;GROSSMAN, 1991;40,7667;-74,0166;0,001;;;CONTINENTAL_RIFT;;;;"AAS; COL; ICP; INAA; TITR; Unknown";WHOLE ROCK;IGNEOUS:PLUTONIC:MAFIC;GABBRO;;58,7;wt%;COL;1,7;wt%;COL;11,1;wt%;COL;;;;2,6;wt%;Unknown;;;;11,2;wt%;TITR;;;;;;;0,22;wt%;AAS;1,4;wt%;AAS;5,2;wt%;Unknown;;;;2,7;wt%;Unknown;2,7;wt%;AAS;0,66;wt%;COL;;;;;;;;;;0,22;wt%;TITR;1,3;wt%;TITR;;;;;;;;;;;;;;;;320;ppm;Unknown;;;;191;ppm;Unknown;;;;0,22;ppm;AAS;0,05;ppm;INAA;;;;;;;;;;;;;;;;;;;;;;;;;;;;;;;;;;;;;;;;;;;;;;;;;;;;;;;;;;;;;;;;;;;;;;;;;;;;;;;;;;;;;;;;;;;;;;;;;;;;;;;;;;;;;;;;;;;;;;;;;;;;;;;;;;;;;;;;;;;;;;;;;;;;;;;;;;;;;;;;;;;;;;0,1;ppm;INAA;0,42;ppm;INAA;;;;;;;;;;;;;;;;0,22;ppm;AAS;;;;;;;;;;;;;600;ppm;Unknown;;;;;;;;;;;;;;;;;;;;;;320;ppm;Unknown;;;;;;;;;;;;;;;;;;;;;;;;;;;;;;;23;ppm;ICP;;;;;;;;;;;;;;;;;;;99;ppm;Unknown;;;;;;;;;;0,05;ppm;INAA;;;;;;;;;;202;ppm;Unknown;;;;;;;;;;;;;;;;;;;;;;68;ppm;Unknown;191;ppm;Unknown;320;ppm;Unknown;;;;;;;;;;;;;;;;;;;;;;;;;;;;;;;;;;0,22;wt%;TITR;1,3;wt%;TITR;0,22;wt%;TITR;1,3;wt%;TITR;;;
GROSCAMP-W-235457;;GROSSMAN-CAMP;GROSSMAN, 1991;40,7667;-74,0166;0,001;;;CONTINENTAL_RIFT;;;;"AAS; COL; ICP; INAA; TITR; Unknown";WHOLE ROCK;IGNEOUS:PLUTONIC:MAFIC;GABBRO;;53,1;wt%;COL;2,5;wt%;COL;10,9;wt%;COL;;;;2,6;wt%;Unknown;;;;11,2;wt%;TITR;;;;;;;0,19;wt%;AAS;2,1;wt%;AAS;9;wt%;Unknown;;;;4;wt%;Unknown;1,5;wt%;AAS;1,1;wt%;COL;;;;;;;;;;0,07;wt%;TITR;0,88;wt%;TITR;;;;;;;;;;7;ppm;Unknown;;;;370;ppm;Unknown;;;;116;ppm;Unknown;;;;0,11;ppm;AAS;0,07;ppm;INAA;;;;;;;;;;;;;;;;;;;;;;;;;;;;;;;;;;;;;;;;;;;;;;;;;;;;;;;;;;;;;;;;;;;;;;;;;;;;;;;;;;;;;;;;;;;;;;;;;;;;;;;;;;;;;;;;;;;;;;;;;;;;;;;;;;;;;;;;;;;;;;;;;;;;;;;;;;;;;;;;;;;;;;0,11;ppm;INAA;0,16;ppm;INAA;;;;;;;;;;;;;;;;0,11;ppm;AAS;;;;;;;;;;;;;300;ppm;Unknown;;;;;;;;;;;;;;;;;;;;;;370;ppm;Unknown;;;;;;;;;;;;;;;;;;;;;;;;;;;;;;;21;ppm;ICP;7;ppm;Unknown;;;;;;;;;;;;;;;;46;ppm;Unknown;;;;;;;;;;0,07;ppm;INAA;;;;;;;;;;202;ppm;Unknown;;;;;;;;;;;;;;;;;;;;;;65;ppm;Unknown;116;ppm;Unknown;249;ppm;Unknown;;;;;;;;;;;;;;;;;;;;;;;;;;;;;;;;;;0,07;wt%;TITR;0,88;wt%;TITR;0,07;wt%;TITR;0,88;wt%;TITR;;;
GROSCAMP-W-235458;;GROSSMAN-CAMP;GROSSMAN, 1991;40,7667;-74,0166;0,001;;;CONTINENTAL_RIFT;;;;"AAS; COL; ICP; INAA; TITR; Unknown";WHOLE ROCK;IGNEOUS:PLUTONIC:MAFIC;GABBRO;;51,8;wt%;COL;2;wt%;COL;9,6;wt%;COL;;;;2,6;wt%;Unknown;;;;14;wt%;TITR;;;;;;;0,2;wt%;AAS;3,1;wt%;AAS;7,8;wt%;Unknown;;;;3,1;wt%;Unknown;1,9;wt%;AAS;0,69;wt%;COL;;;;;;;;;;0,23;wt%;TITR;1,1;wt%;TITR;;;;;;;;;;12;ppm;Unknown;;;;88;ppm;Unknown;;;;56;ppm;Unknown;;;;0,033;ppm;AAS;0,14;ppm;INAA;;;;;;;;;;;;;;;;;;;;;;;;;;;;;;;;;;;;;;;;;;;;;;;;;;;;;;;;;;;;;;;;;;;;;;;;;;;;;;;;;;;;;;;;;;;;;;;;;;;;;;;;;;;;;;;;;;;;;;;;;;;;;;;;;;;;;;;;;;;;;;;;;;;;;;;;;;;;;;;;;;;;;;0,1;ppm;INAA;0,18;ppm;INAA;;;;;;;;;;;;;;;;0,033;ppm;AAS;;;;;;;;;;;;;320;ppm;Unknown;;;;;;;;;;;;;;;;;;;;;;88;ppm;Unknown;;;;;;;;;;;;;;;;;;;;;;;;;;;;;;;20;ppm;ICP;12;ppm;Unknown;;;;;;;;;;;;;;;;64;ppm;Unknown;;;;;;;;;;0,14;ppm;INAA;;;;;;;;;;158;ppm;Unknown;;;;;;;;;;;;;;;;;;;;;;61;ppm;Unknown;56;ppm;Unknown;226;ppm;Unknown;;;;;;;;;;;;;;;;;;;;;;;;;;;;;;;;;;0,23;wt%;TITR;1,1;wt%;TITR;0,23;wt%;TITR;1,1;wt%;TITR;;;
GROSCAMP-W-235459;;GROSSMAN-CAMP;GROSSMAN, 1991;40,7667;-74,0166;0,001;;;CONTINENTAL_RIFT;;;;"AAS; COL; ICP; INAA; TITR; Unknown";WHOLE ROCK;IGNEOUS:PLUTONIC:MAFIC;GABBRO;;53,4;wt%;COL;1,8;wt%;COL;14,6;wt%;COL;;;;3,8;wt%;Unknown;;;;9,8;wt%;TITR;;;;;;;0,19;wt%;AAS;3,1;wt%;AAS;7,1;wt%;Unknown;;;;3,2;wt%;Unknown;2,1;wt%;AAS;0,24;wt%;COL;;;;;;;;;;0,15;wt%;TITR;1,3;wt%;TITR;;;;;;;;;;18;ppm;Unknown;;;;141;ppm;Unknown;;;;84;ppm;Unknown;;;;0,032;ppm;AAS;0,04;ppm;INAA;;;;;;;;;;;;;;;;;;;;;;;;;;;;;;;;;;;;;;;;;;;;;;;;;;;;;;;;;;;;;;;;;;;;;;;;;;;;;;;;;;;;;;;;;;;;;;;;;;;;;;;;;;;;;;;;;;;;;;;;;;;;;;;;;;;;;;;;;;;;;;;;;;;;;;;;;;;;;;;;;;;;;;0,05;ppm;INAA;0,33;ppm;INAA;;;;;;;;;;;;;;;;0,032;ppm;AAS;;;;;;;;;;;;;410;ppm;Unknown;;;;;;;;;;;;;;;;;;;;;;141;ppm;Unknown;;;;;;;;;;;;;;;;;;;;;;;;;;;;;;;15;ppm;ICP;18;ppm;Unknown;;;;;;;;;;18;ppm;Unknown;3,3;ppm;Unknown;67;ppm;Unknown;;;;;;;;;;0,04;ppm;INAA;;;;;;;;;;254;ppm;Unknown;;;;;;;;;;;;;;;;;;;;;;32;ppm;Unknown;84;ppm;Unknown;165;ppm;Unknown;;;;;;;;;;;;;;;;;;;;;;;;;;;;;;;;;;0,15;wt%;TITR;1,3;wt%;TITR;0,15;wt%;TITR;1,3;wt%;TITR;;;
GROSCAMP-W-235460;;GROSSMAN-CAMP;GROSSMAN, 1991;40,7667;-74,0166;0,001;;;CONTINENTAL_RIFT;;;;"AAS; COL; ICP; INAA; TITR; Unknown";WHOLE ROCK;IGNEOUS:PLUTONIC:MAFIC;GABBRO;;52,7;wt%;COL;1,2;wt%;COL;16;wt%;COL;;;;1,5;wt%;Unknown;;;;8,9;wt%;TITR;;;;;;;0,17;wt%;AAS;5,2;wt%;AAS;9,4;wt%;Unknown;;;;2,5;wt%;Unknown;1,3;wt%;AAS;0,18;wt%;COL;;;;;;;;;;0,08;wt%;TITR;0,9;wt%;TITR;;;;;;;;;;47;ppm;Unknown;;;;138;ppm;Unknown;;;;81;ppm;Unknown;;;;0,072;ppm;AAS;0,04;ppm;INAA;;;;;;;;;;;;;;;;;;;;;;;;;;;;;;;;;;;;;;;;;;;;;;;;;;;;;;;;;;;;;;;;;;;;;;;;;;;;;;;;;;;;;;;;;;;;;;;;;;;;;;;;;;;;;;;;;;;;;;;;;;;;;;;;;;;;;;;;;;;;;;;;;;;;;;;;;;;;;;;;;;;0,02;ppm;TITR;0,04;ppm;INAA;0,2;ppm;INAA;;;;;;;;;;;;;;;;0,072;ppm;AAS;;;;;;;;;;;;;260;ppm;Unknown;;;;;;;;;;;;;;;;;;;;;;138;ppm;Unknown;;;;;;;;;;;;;;;;;;;;;;;;;;;;;;;10;ppm;ICP;47;ppm;Unknown;;;;;;;;;;18;ppm;Unknown;3,3;ppm;Unknown;47;ppm;Unknown;;;;;;;;;;0,04;ppm;INAA;;;;;;;;;;225;ppm;Unknown;;;;;;;;;;;;;;;;;;;;;;26;ppm;Unknown;81;ppm;Unknown;119;ppm;Unknown;;;;;;;;;;;;;;;;;;;;;;;;;;;;;;;;;;0,08;wt%;TITR;0,9;wt%;TITR;0,08;wt%;TITR;0,9;wt%;TITR;;;
GROSCAMP-W-235461;;GROSSMAN-CAMP;GROSSMAN, 1991;40,7667;-74,0166;0,001;;;CONTINENTAL_RIFT;;;;"AAS; COL; ICP; INAA; TITR; Unknown";WHOLE ROCK;IGNEOUS:PLUTONIC:MAFIC;GABBRO;;53,7;wt%;COL;0,79;wt%;COL;20,3;wt%;COL;;;;1,6;wt%;Unknown;;;;6,4;wt%;TITR;;;;;;;0,06;wt%;AAS;5;wt%;AAS;1;wt%;Unknown;;;;5,2;wt%;Unknown;5,5;wt%;AAS;0,11;wt%;COL;;;;;;;;;;;;;1,7;wt%;TITR;;;;;;;;;;47;ppm;Unknown;;;;;;;;;;153;ppm;Unknown;;;;0,044;ppm;AAS;0,07;ppm;INAA;;;;;;;;;;;;;;;;;;;;;;;;;;;;;;;;;;;;;;;;;;;;;;;;;;;;;;;;;;;;;;;;;;;;;;;;;;;;;;;;;;;;;;;;;;;;;;;;;;;;;;;;;;;;;;;;;;;;;;;;;;;;;;;;;;;;;;;;;;;;;;;;;;;;;;;;;;;;;;;;;;;0,02;ppm;TITR;0,23;ppm;INAA;0,09;ppm;INAA;;;;;;;;;;;;;;;;0,044;ppm;AAS;;;;;;;;;;;;;1700;ppm;Unknown;;;;;;;;;;;;;;;;;;;;;;;;;;;;;;;;;;;;;;;;;;;;;;;;;;;;;;;21;ppm;ICP;47;ppm;Unknown;;;;;;;;;;;;;;;;268;ppm;Unknown;;;;;;;;;;0,07;ppm;INAA;;;;;;;;;;470;ppm;Unknown;;;;;;;;;;;;;;;;;;;;;;21;ppm;Unknown;153;ppm;Unknown;106;ppm;Unknown;;;;;;;;;;;;;;;;;;;;;;;;;;;;;;;;;;;;;1,7;wt%;TITR;;;;1,7;wt%;TITR;;;
GROSCAMP-W-235462;;GROSSMAN-CAMP;GROSSMAN, 1991;40,7667;-74,0166;0,001;;;CONTINENTAL_RIFT;;;;"AAS; COL; ICP; INAA; TITR; Unknown";WHOLE ROCK;IGNEOUS:VOLCANIC:MAFIC;DIABASE;;52,6;wt%;COL;0,96;wt%;COL;12,7;wt%;COL;;;;1,3;wt%;Unknown;;;;8,4;wt%;TITR;;;;;;;0,18;wt%;AAS;9,8;wt%;AAS;9,8;wt%;Unknown;;;;1,9;wt%;Unknown;0,51;wt%;AAS;0,15;wt%;COL;;;;;;;;;;0,31;wt%;TITR;1;wt%;TITR;;;;;;;;;;118;ppm;Unknown;;;;83;ppm;Unknown;;;;72;ppm;Unknown;;;;0,037;ppm;AAS;0,03;ppm;INAA;;;;;;;;;;;;;;;;;;;;;;;;;;;;;;;;;;;;;;;;;;;;;;;;;;;;;;;;;;;;;;;;;;;;;;;;;;;;;;;;;;;;;;;;;;;;;;;;;;;;;;;;;;;;;;;;;;;;;;;;;;;;;;;;;;;;;;;;;;;;;;;;;;;;;;;;;;;;;;;;;;;;;;0,02;ppm;INAA;0,01;ppm;INAA;;;;;;;;;;;;;;;;0,037;ppm;AAS;;;;;;;;;;;;;138;ppm;Unknown;;;;;;;;;;;;;;;;;;;;;;83;ppm;Unknown;;;;;;;;;;;;;;;;;;;;;;;;;;;;;;;6,5;ppm;ICP;118;ppm;Unknown;;;;;;;;;;7;ppm;Unknown;11;ppm;Unknown;24;ppm;Unknown;;;;;;;;;;0,03;ppm;INAA;;;;;;;;;;158;ppm;Unknown;;;;;;;;;;;;;;;;;;;;;;25;ppm;Unknown;72;ppm;Unknown;89;ppm;Unknown;;;;;;;;;;;;;;;;;;;;;;;;;;;;;;;;;;0,31;wt%;TITR;1;wt%;TITR;0,31;wt%;TITR;1;wt%;TITR;;;
GROSCAMP-W-235463;;GROSSMAN-CAMP;GROSSMAN, 1991;40,7667;-74,0166;0,001;;;CONTINENTAL_RIFT;;;;"AAS; COL; ICP; INAA; TITR; Unknown";WHOLE ROCK;IGNEOUS:VOLCANIC:MAFIC;DIABASE;;51,8;wt%;COL;1,1;wt%;COL;14,5;wt%;COL;;;;0,76;wt%;Unknown;;;;9,4;wt%;TITR;;;;;;;0,18;wt%;AAS;7,8;wt%;AAS;10,3;wt%;Unknown;;;;1,9;wt%;Unknown;0,42;wt%;AAS;0,17;wt%;COL;;;;;;;;;;0,15;wt%;TITR;0,71;wt%;TITR;;;;;;;;;;94;ppm;Unknown;;;;97;ppm;Unknown;;;;78;ppm;Unknown;;;;0,045;ppm;AAS;0,04;ppm;INAA;;;;;;;;;;;;;;;;;;;;;;;;;;;;;;;;;;;;;;;;;;;;;;;;;;;;;;;;;;;;;;;;;;;;;;;;;;;;;;;;;;;;;;;;;;;;;;;;;;;;;;;;;;;;;;;;;;;;;;;;;;;;;;;;;;;;;;;;;;;;;;;;;;;;;;;;;;;;;;;;;;;0,04;ppm;TITR;0,02;ppm;INAA;0,04;ppm;INAA;;;;;;;;;;;;;;;;0,045;ppm;AAS;;;;;;;;;;;;;170;ppm;Unknown;;;;;;;;;;;;;;;;;;;;;;97;ppm;Unknown;;;;;;;;;;;;;;;;;;;;;;;;;;;;;;;6,5;ppm;ICP;94;ppm;Unknown;;;;;;;;;;7,6;ppm;Unknown;8,8;ppm;Unknown;15;ppm;Unknown;;;;;;;;;;0,04;ppm;INAA;;;;;;;;;;173;ppm;Unknown;;;;;;;;;;;;;;;;;;;;;;21;ppm;Unknown;78;ppm;Unknown;97;ppm;Unknown;;;;;;;;;;;;;;;;;;;;;;;;;;;;;;;;;;0,15;wt%;TITR;0,71;wt%;TITR;0,15;wt%;TITR;0,71;wt%;TITR;;;
GROSCAMP-W-235793;;GROSSMAN-CAMP;GROSSMAN, 1991;38,526;-78,014;0,001;;;CONTINENTAL_RIFT;;;;"AAS; COL; ES; ICP; INAA; TITR; Unknown";WHOLE ROCK;IGNEOUS:VOLCANIC:MAFIC;DIABASE;;52,2;wt%;COL;1,7;wt%;COL;16;wt%;COL;;;;3,7;wt%;Unknown;;;;8,5;wt%;TITR;;;;;;;0,16;wt%;AAS;3,3;wt%;AAS;5,9;wt%;Unknown;;;;4,21;wt%;Unknown;2,7;wt%;AAS;0,24;wt%;COL;;;;;;;;;;0,54;wt%;TITR;2;wt%;TITR;;;;;;;;;;25;ppm;Unknown;43;ppm;Unknown;176;ppm;Unknown;;;;122;ppm;Unknown;4,1;ppm;INAA;;;;0,06;ppm;INAA;;;;;;;;;;;;;;;;;;;;;;;;;;;;;;;;;;;;;;;;;;;;;;;;;;;;;;;;;;;;;;;;;;;;;;;;;;;;;;;;;;;;;;;;;;;;;;;;;;;;;;;;;;;;;;;;;;;;;;;;;21,2;ppm;INAA;34;ppm;INAA;;;;20;ppm;INAA;5,7;ppm;INAA;1,5;ppm;INAA;;;;1;ppm;INAA;;;;;;;;;;;;;3,4;ppm;INAA;0,48;ppm;INAA;0,03;ppm;TITR;0,04;ppm;INAA;0,22;ppm;INAA;;;;;;;;;;;;;;;;;;;;;;4,1;ppm;INAA;;;;31;ppm;ES;370;ppm;Unknown;;;;;;;;;;;;;43;ppm;Unknown;;;;0,75;ppm;INAA;176;ppm;Unknown;;;;;;;3,7;ppm;INAA;;;;;;;;;;;;;;;;;;;;;;10;ppm;ICP;25;ppm;Unknown;;;;;;;;;;12;ppm;Unknown;5,4;ppm;Unknown;112;ppm;Unknown;;;;;;;;;;0,06;ppm;INAA;0,43;ppm;INAA;33;ppm;INAA;;;;410;ppm;Unknown;0,77;ppm;INAA;3,6;ppm;INAA;;;;;;;;;;;;;;;;42;ppm;Unknown;122;ppm;Unknown;158;ppm;Unknown;;;;;;;;;;;;;;;;;;;;;;;;;4,1;ppm;INAA;4,1;ppm;INAA;;;;0,54;wt%;TITR;2;wt%;TITR;0,54;wt%;TITR;2;wt%;TITR;;;
GROSCAMP-W-235794;;GROSSMAN-CAMP;GROSSMAN, 1991;38,526;-78,014;0,001;;;CONTINENTAL_RIFT;;;;"AAS; COL; ES; ICP; INAA; TITR; Unknown";WHOLE ROCK;IGNEOUS:VOLCANIC:MAFIC;DIABASE;;57,8;wt%;COL;1,8;wt%;COL;12,5;wt%;COL;;;;4,4;wt%;Unknown;;;;6,8;wt%;TITR;;;;;;;0,18;wt%;AAS;1,1;wt%;AAS;5,7;wt%;Unknown;;;;4,6;wt%;Unknown;2,2;wt%;AAS;0,76;wt%;COL;;;;;;;;;;0,72;wt%;TITR;0,98;wt%;TITR;;;;;;;;;;;;;29,4;ppm;Unknown;123;ppm;Unknown;;;;52;ppm;Unknown;4,4;ppm;INAA;;;;0,06;ppm;INAA;;;;;;;;;;;;;;;;;;;;;;;;;;;;;;;;;;;;;;;;;;;;;;;;;;;;;;;;;;;;;;;;;;;;;;;;;;;;;;;;;;;;;;;;;;;;;;;;;;;;;;;;;;;;;;;;;;;;;;;;;82;ppm;INAA;150;ppm;INAA;;;;100;ppm;INAA;28,3;ppm;INAA;5,6;ppm;INAA;;;;4,5;ppm;INAA;;;;;;;;;;;;;15,6;ppm;INAA;2,1;ppm;INAA;0,02;ppm;TITR;0,1;ppm;INAA;0,2;ppm;INAA;;;;;;;;;;;;;;;;;;;;;;4,4;ppm;INAA;;;;16;ppm;ES;390;ppm;Unknown;;;;;;;;;;;;;29,4;ppm;Unknown;;;;;;;123;ppm;Unknown;;;;;;;8,4;ppm;INAA;;;;;;;;;;;;;;;;;;;;;;24;ppm;ICP;;;;;;;;;;;;;;;;;;;66;ppm;Unknown;;;;;;;;;;0,06;ppm;INAA;;;;27,3;ppm;INAA;;;;146;ppm;Unknown;1,9;ppm;INAA;8,7;ppm;INAA;;;;;;;1,5;ppm;INAA;;;;;;;131;ppm;Unknown;52;ppm;Unknown;320;ppm;Unknown;;;;;;;;;;;;;;;;;;;;;;;;;4,4;ppm;INAA;4,4;ppm;INAA;;;;0,72;wt%;TITR;0,98;wt%;TITR;0,72;wt%;TITR;0,98;wt%;TITR;;;
GROSCAMP-W-235795;;GROSSMAN-CAMP;GROSSMAN, 1991;38,526;-78,014;0,001;;;CONTINENTAL_RIFT;;;;"AAS; COL; ES; ICP; INAA; TITR; Unknown";WHOLE ROCK;IGNEOUS:VOLCANIC:MAFIC;DIABASE;;52,5;wt%;COL;1,2;wt%;COL;15,4;wt%;COL;;;;3;wt%;Unknown;;;;7,5;wt%;TITR;;;;;;;0,22;wt%;AAS;5,5;wt%;AAS;9,9;wt%;Unknown;;;;2,4;wt%;Unknown;0,83;wt%;AAS;0,2;wt%;COL;;;;;;;;;;0,34;wt%;TITR;1,1;wt%;TITR;;;;;;;;;;60;ppm;Unknown;46;ppm;Unknown;148;ppm;Unknown;;;;82;ppm;Unknown;2,4;ppm;INAA;;;;0,11;ppm;INAA;;;;;;;;;;;;;;;;;;;;;;;;;;;;;;;;;;;;;;;;;;;;;;;;;;;;;;;;;;;;;;;;;;;;;;;;;;;;;;;;;;;;;;;;;;;;;;;;;;;;;;;;;;;;;;;;;;;;;;;;;12,6;ppm;INAA;25;ppm;INAA;;;;13;ppm;INAA;3,9;ppm;INAA;1,16;ppm;INAA;;;;0,68;ppm;INAA;;;;;;;;;;;;;2,6;ppm;INAA;0,35;ppm;INAA;0,01;ppm;TITR;0,03;ppm;INAA;0,19;ppm;INAA;;;;;;;;;;;;;;;;;;;;;;2,4;ppm;INAA;;;;8;ppm;ES;265;ppm;Unknown;;;;;;;;;;;;;46;ppm;Unknown;61;ppm;Unknown;1,3;ppm;INAA;148;ppm;Unknown;;;;;;;2,73;ppm;INAA;;;;;;;;;;;;;;;;;;;;;;8,4;ppm;ICP;60;ppm;Unknown;;;;;;;;;;5,7;ppm;Unknown;6,3;ppm;Unknown;43;ppm;Unknown;;;;;;;;;;0,11;ppm;INAA;0,43;ppm;INAA;36;ppm;INAA;;;;213;ppm;Unknown;0,58;ppm;INAA;2,6;ppm;INAA;;;;;;;0,54;ppm;INAA;;;;;;;30;ppm;Unknown;82;ppm;Unknown;110;ppm;Unknown;;;;;;;;;;;;;;;;;;;;;;;;;2,4;ppm;INAA;2,4;ppm;INAA;;;;0,34;wt%;TITR;1,1;wt%;TITR;0,34;wt%;TITR;1,1;wt%;TITR;;;
GROSCAMP-W-235796;;GROSSMAN-CAMP;GROSSMAN, 1991;38,526;-78,014;0,001;;;CONTINENTAL_RIFT;;;;"AAS; COL; ES; ICP; INAA; TITR; Unknown";WHOLE ROCK;IGNEOUS:VOLCANIC:MAFIC;DIABASE;;59;wt%;COL;1,8;wt%;COL;13,7;wt%;COL;;;;5,3;wt%;Unknown;;;;3,6;wt%;TITR;;;;;;;0,14;wt%;AAS;0,77;wt%;AAS;4;wt%;Unknown;;;;4,78;wt%;Unknown;2,5;wt%;AAS;0,77;wt%;COL;;;;;;;;;;0,98;wt%;TITR;1,8;wt%;TITR;;;;;;;;;;7;ppm;Unknown;12,2;ppm;Unknown;27;ppm;Unknown;;;;48;ppm;Unknown;;;;;;;0,11;ppm;INAA;;;;;;;;;;;;;;;;;;;;;;;;;;;;;;;;;;;;;;;;;;;;;;;;;;;;;;;;;;;;;;;;;;;;;;;;;;;;;;;;;;;;;;;;;;;;;;;;;;;;;;;;;;;;;;;;;;;;;;;;;76;ppm;INAA;123;ppm;INAA;;;;100;ppm;INAA;26,9;ppm;INAA;5;ppm;INAA;;;;3,7;ppm;INAA;;;;;;;;;;;;;9,5;ppm;INAA;1,3;ppm;INAA;0,01;ppm;TITR;0,05;ppm;INAA;0,03;ppm;INAA;;;;;;;;;;;;;;;;;;;;;;;;;;;;13;ppm;ES;410;ppm;Unknown;;;;;;;;;;;;;12,2;ppm;Unknown;;;;0,79;ppm;INAA;27;ppm;Unknown;;;;;;;10;ppm;INAA;;;;;;;;;;;;;;;;;;;;;;29;ppm;ICP;7;ppm;Unknown;;;;;;;;;;;;;;;;75;ppm;Unknown;;;;;;;;;;0,11;ppm;INAA;;;;23,9;ppm;INAA;;;;120;ppm;Unknown;2,12;ppm;INAA;10;ppm;INAA;;;;;;;2,5;ppm;INAA;;;;;;;121;ppm;Unknown;48;ppm;Unknown;390;ppm;Unknown;;;;;;;;;;;;;;;;;;;;;;;;;;;;;;;;;;0,98;wt%;TITR;1,8;wt%;TITR;0,98;wt%;TITR;1,8;wt%;TITR;;;
GROSCAMP-W-236248;;GROSSMAN-CAMP;GROSSMAN, 1991;38,526;-78,014;0,001;;;CONTINENTAL_RIFT;;;;"AAS; COL; ICP; INAA; Unknown";WHOLE ROCK;IGNEOUS:VOLCANIC:MAFIC;DIABASE;;;;;;;;;;;;;;;;;17,73;wt%;Unknown;;;;;;;;;;;;;;;;8,67;wt%;Unknown;;;;2,37;wt%;Unknown;;;;0,34;wt%;COL;;;;;;;;;;;;;;;;;;;;;;;;;42;ppm;Unknown;52;ppm;Unknown;186;ppm;Unknown;;;;70;ppm;Unknown;2,8;ppm;INAA;0,03;ppm;AAS;0,02;ppm;INAA;;;;;;;;;;;;;;;;;;;;;;;;;;;;;;;;;;;;;;;;;;;;;;;;;;;;;;;;;;;;;;;;;;;;;;;;;;;;;;;;;;;;;;;;;;;;;;;;;;;;;;;;;;;;;;;;;;;;;;;;;23,1;ppm;INAA;49;ppm;INAA;;;;25;ppm;INAA;7,2;ppm;INAA;1,86;ppm;INAA;;;;1,29;ppm;INAA;;;;;;;;;;;;;4;ppm;INAA;0,59;ppm;INAA;;;;0,04;ppm;INAA;0,12;ppm;INAA;;;;;;;;;;;;;;;;0,03;ppm;AAS;;;;2,8;ppm;INAA;;;;;;;297;ppm;Unknown;;;;;;;;;;;;;52;ppm;Unknown;15;ppm;Unknown;1,4;ppm;INAA;186;ppm;Unknown;;;;;;;5,6;ppm;INAA;;;;;;;;;;;;;;;;;;;;;;14;ppm;ICP;42;ppm;Unknown;;;;;;;;;;;;;;;;50;ppm;Unknown;;;;;;;;;;0,02;ppm;INAA;0,48;ppm;INAA;41;ppm;INAA;;;;220;ppm;Unknown;1,3;ppm;INAA;4,9;ppm;INAA;;;;;;;1,1;ppm;INAA;;;;;;;41;ppm;Unknown;70;ppm;Unknown;185;ppm;Unknown;;;;;;;;;;;;;;;;;;;;;;;;;2,8;ppm;INAA;2,8;ppm;INAA;;;;;;;;;;;;;;;;;;