SAMPLE ID;IGSN;EXPEDITION ID;REFERENCES;LATITUDE;LONGITUDE;LOC PREC;MIN ELEVATION;MAX ELEVATION;TECTONIC SETTING;MIN AGE;AGE;MAX AGE;METHOD;ANALYZED MATERIAL;ROCK TYPE;ROCK NAME;MINERAL;SIO2;SIO2 Units;SIO2 Method;TIO2;TIO2 Units;TIO2 Method;AL2O3;AL2O3 Units;AL2O3 Method;CR2O3;CR2O3 Units;CR2O3 Method;FE2O3;FE2O3 Units;FE2O3 Method;FE2O3T;FE2O3T Units;FE2O3T Method;FEO;FEO Units;FEO Method;FEOT;FEOT Units;FEOT Method;NIO;NIO Units;NIO Method;MNO;MNO Units;MNO Method;MGO;MGO Units;MGO Method;CAO;CAO Units;CAO Method;SRO;SRO Units;SRO Method;NA2O;NA2O Units;NA2O Method;K2O;K2O Units;K2O Method;P2O5;P2O5 Units;P2O5 Method;BAO;BAO Units;BAO Method;LOI;LOI Units;LOI Method;H2O;H2O Units;H2O Method;H2O_M;H2O_M Units;H2O_M Method;H2O_P;H2O_P Units;H2O_P Method;SO3;SO3 Units;SO3 Method;COO;COO Units;COO Method;MN;MN Units;MN Method;NI;NI Units;NI Method;CO;CO Units;CO Method;CU;CU Units;CU Method;CD;CD Units;CD Method;ZN;ZN Units;ZN Method;AS;AS Units;AS Method;AG;AG Units;AG Method;S;S Units;S Method;ZRO2;ZRO2 Units;ZRO2 Method;AL;AL Units;AL Method;CA;CA Units;CA Method;SR87_SR86;SR87_SR86 Units;SR87_SR86 Method;SR87_SR86_INI;SR87_SR86_INI Units;SR87_SR86_INI Method;RB87_SR86;RB87_SR86 Units;RB87_SR86 Method;ND143_ND144;ND143_ND144 Units;ND143_ND144 Method;ND143_ND144_INI;ND143_ND144_INI Units;ND143_ND144_INI Method;SM147_ND144;SM147_ND144 Units;SM147_ND144 Method;E_ND;E_ND Units;E_ND Method;E_ND_INI;E_ND_INI Units;E_ND_INI Method;PB204_PB206;PB204_PB206 Units;PB204_PB206 Method;PB206_PB204;PB206_PB204 Units;PB206_PB204 Method;PB206_PB204_INI;PB206_PB204_INI Units;PB206_PB204_INI Method;PB207_PB204;PB207_PB204 Units;PB207_PB204 Method;PB207_PB204_INI;PB207_PB204_INI Units;PB207_PB204_INI Method;PB207_PB206;PB207_PB206 Units;PB207_PB206 Method;PB208_PB204;PB208_PB204 Units;PB208_PB204 Method;PB208_PB204_INI;PB208_PB204_INI Units;PB208_PB204_INI Method;PB208_PB206;PB208_PB206 Units;PB208_PB206 Method;HF176_HF177;HF176_HF177 Units;HF176_HF177 Method;RE187_OS188;RE187_OS188 Units;RE187_OS188 Method;OS187_OS188;OS187_OS188 Units;OS187_OS188 Method;OS187_OS188_INI;OS187_OS188_INI Units;OS187_OS188_INI Method;G_OS;G_OS Units;G_OS Method;G_OS_INI;G_OS_INI Units;G_OS_INI Method;ND143_ND144_INI;ND143_ND144_INI Units;ND143_ND144_INI Method;PB206_PB204_INI;PB206_PB204_INI Units;PB206_PB204_INI Method;PB207_PB204_INI;PB207_PB204_INI Units;PB207_PB204_INI Method;PB208_PB204_INI;PB208_PB204_INI Units;PB208_PB204_INI Method;SR87_SR86_INI;SR87_SR86_INI Units;SR87_SR86_INI Method;HE;HE Units;HE Method;HE3;HE3 Units;HE3 Method;HE3_HE4_R_RA;HE3_HE4_R_RA Units;HE3_HE4_R_RA Method;AR36;AR36 Units;AR36 Method;AR40;AR40 Units;AR40 Method;AR40_AR36;AR40_AR36 Units;AR40_AR36 Method;NE20;NE20 Units;NE20 Method;NE20_NE22;NE20_NE22 Units;NE20_NE22 Method;NE21_NE22;NE21_NE22 Units;NE21_NE22 Method;LA;LA Units;LA Method;CE;CE Units;CE Method;PR;PR Units;PR Method;ND;ND Units;ND Method;SM;SM Units;SM Method;EU;EU Units;EU Method;GD;GD Units;GD Method;TB;TB Units;TB Method;DY;DY Units;DY Method;HO;HO Units;HO Method;ER;ER Units;ER Method;TM;TM Units;TM Method;YB;YB Units;YB Method;LU;LU Units;LU Method;CO2;CO2 Units;CO2 Method;F;F Units;F Method;CL;CL Units;CL Method;U238_PB204;U238_PB204 Units;U238_PB204 Method;TH230_TH232;TH230_TH232 Units;TH230_TH232 Method;RA226_ACTIVITY;RA226_ACTIVITY Units;RA226_ACTIVITY Method;PB210_RA226;PB210_RA226 Units;PB210_RA226 Method;PB210_ACTIVITY;PB210_ACTIVITY Units;PB210_ACTIVITY Method;AG;AG Units;AG Method;AL;AL Units;AL Method;AS;AS Units;AS Method;AU;AU Units;AU Method;B;B Units;B Method;BA;BA Units;BA Method;BE;BE Units;BE Method;BI;BI Units;BI Method;CA;CA Units;CA Method;CD;CD Units;CD Method;CO;CO Units;CO Method;CR;CR Units;CR Method;CS;CS Units;CS Method;CU;CU Units;CU Method;GA;GA Units;GA Method;GER;GER Units;GER Method;HF;HF Units;HF Method;INDIUM;INDIUM Units;INDIUM Method;IR;IR Units;IR Method;K;K Units;K Method;LI;LI Units;LI Method;MN;MN Units;MN Method;MO;MO Units;MO Method;NA;NA Units;NA Method;NB;NB Units;NB Method;NI;NI Units;NI Method;OS;OS Units;OS Method;P;P Units;P Method;PB;PB Units;PB Method;PD;PD Units;PD Method;PT;PT Units;PT Method;RB;RB Units;RB Method;RE;RE Units;RE Method;RH;RH Units;RH Method;RU;RU Units;RU Method;S;S Units;S Method;SB;SB Units;SB Method;SC;SC Units;SC Method;SN;SN Units;SN Method;SR;SR Units;SR Method;TA;TA Units;TA Method;TH;TH Units;TH Method;TI;TI Units;TI Method;TL;TL Units;TL Method;U;U Units;U Method;V;V Units;V Method;W;W Units;W Method;Y;Y Units;Y Method;ZN;ZN Units;ZN Method;ZR;ZR Units;ZR Method;DELTA_O18;DELTA_O18 Units;DELTA_O18 Method;DELTA_C13;DELTA_C13 Units;DELTA_C13 Method;DELTA_MO98;DELTA_MO98 Units;DELTA_MO98 Method;DELTA_ZN66;DELTA_ZN66 Units;DELTA_ZN66 Method;DELTA_ZN68;DELTA_ZN68 Units;DELTA_ZN68 Method;OS188;OS188 Units;OS188 Method;FE3P_FET;FE3P_FET Units;FE3P_FET Method;TI;TI Units;TI Method;AS;AS Units;AS Method;AS;AS Units;AS Method;GER;GER Units;GER Method;H2O_M;H2O_M Units;H2O_M Method;H2O_P;H2O_P Units;H2O_P Method;H2O_M;H2O_M Units;H2O_M Method;H2O_P;H2O_P Units;H2O_P Method;INDIUM;INDIUM Units;INDIUM Method
GROSCAMP-W-238433;;GROSSMAN-CAMP;GROSSMAN, 1991;40,1583;-76,97;0,001;;;CONTINENTAL_RIFT;;;;"AAS; COL; ICP; ICPMS; INAA; TITR; Unknown";WHOLE ROCK;IGNEOUS:VOLCANIC:MAFIC;DIABASE;;52,7;wt%;COL;1,05;wt%;COL;13,6;wt%;COL;;;;2,22;wt%;Unknown;;;;8,1;wt%;TITR;;;;;;;0,17;wt%;AAS;8,18;wt%;AAS;10,7;wt%;Unknown;;;;2,17;wt%;Unknown;0,53;wt%;AAS;0,13;wt%;COL;;;;;;;;;;0,32;wt%;TITR;0,79;wt%;TITR;;;;;;;;;;110;ppm;Unknown;47;ppm;Unknown;93;ppm;Unknown;;;;79;ppm;Unknown;;;;;;;0,01;ppm;INAA;;;;;;;;;;;;;;;;;;;;;;;;;;;;;;;;;;;;;;;;;;;;;;;;;;;;;;;;;;;;;;;;;;;;;;;;;;;;;;;;;;;;;;;;;;;;;;;;;;;;;;;;;;;;;;;;;;;;;;;;;10,9;ppm;INAA;21,9;ppm;INAA;;;;12;ppm;INAA;3,4;ppm;INAA;10;ppm;INAA;;;;0,6;ppm;INAA;;;;;;;;;;;;;1,9;ppm;INAA;0,31;ppm;INAA;0,02;ppm;TITR;0,02;ppm;INAA;0,03;ppm;INAA;;;;;;;;;;;;;;;;;;;;;;;;;;;;;;;152;ppm;Unknown;;;;;;;;;;;;;47;ppm;Unknown;440;ppm;Unknown;0,71;ppm;INAA;93;ppm;Unknown;;;;;;;2,32;ppm;INAA;;;;0,5;ppm;ICPMS;;;;;;;;;;;;;;;;6;ppm;ICP;110;ppm;Unknown;;;;;;;;;;9,5;ppm;Unknown;16;ppm;Unknown;26;ppm;Unknown;;;;0,7;ppm;Unknown;0,7;ppm;ICPMS;0,01;ppm;INAA;;;;37;ppm;INAA;;;;184;ppm;Unknown;0,52;ppm;INAA;2,1;ppm;INAA;;;;;;;0,55;ppm;INAA;;;;;;;27;ppm;Unknown;79;ppm;Unknown;102;ppm;Unknown;;;;;;;;;;;;;;;;;;;;;;;;;;;;;;;;;;0,32;wt%;TITR;0,79;wt%;TITR;0,32;wt%;TITR;0,79;wt%;TITR;;;
GROSCAMP-W-238434;;GROSSMAN-CAMP;GROSSMAN, 1991;39,7236;-77,3653;0,001;;;CONTINENTAL_RIFT;;;;"AAS; COL; ICP; ICPMS; INAA; TITR; Unknown";WHOLE ROCK;IGNEOUS:VOLCANIC:MAFIC;DIABASE;;52,4;wt%;COL;2,24;wt%;COL;14,2;wt%;COL;;;;4,73;wt%;Unknown;;;;9,9;wt%;TITR;;;;;;;0,19;wt%;AAS;3,24;wt%;AAS;8,18;wt%;Unknown;;;;3,13;wt%;Unknown;1,11;wt%;AAS;0,24;wt%;COL;;;;;;;;;;0,27;wt%;TITR;0,91;wt%;TITR;;;;;;;;;;19;ppm;Unknown;46;ppm;Unknown;183;ppm;Unknown;;;;113;ppm;Unknown;3,5;ppm;INAA;;;;0,02;ppm;INAA;;;;;;;;;;;;;;;;;;;;;;;;;;;;;;;;;;;;;;;;;;;;;;;;;;;;;;;;;;;;;;;;;;;;;;;;;;;;;;;;;;;;;;;;;;;;;;;;;;;;;;;;;;;;;;;;;;;;;;;;;20,1;ppm;INAA;40;ppm;INAA;;;;22;ppm;INAA;5,9;ppm;INAA;1,65;ppm;INAA;;;;1,1;ppm;INAA;;;;;;;;;;;;;3,8;ppm;INAA;0,56;ppm;INAA;;;;0,04;ppm;INAA;0,11;ppm;INAA;;;;;;;;;;;;;;;;;;;;;;3,5;ppm;INAA;;;;;;;278;ppm;Unknown;;;;;;;;;;;;;46;ppm;Unknown;6,7;ppm;Unknown;1,3;ppm;INAA;183;ppm;Unknown;;;;;;;4,2;ppm;INAA;;;;;;;;;;;;;;;;;;;;;;14;ppm;ICP;19;ppm;Unknown;;;;;;;;;;22;ppm;Unknown;5,5;ppm;Unknown;43;ppm;Unknown;;;;;;;0,5;ppm;ICPMS;0,02;ppm;INAA;0,33;ppm;INAA;36;ppm;INAA;;;;223;ppm;Unknown;1;ppm;INAA;4,1;ppm;INAA;;;;;;;0,93;ppm;INAA;;;;;;;34;ppm;Unknown;113;ppm;Unknown;158;ppm;Unknown;;;;;;;;;;;;;;;;;;;;;;;;;3,5;ppm;INAA;3,5;ppm;INAA;;;;0,27;wt%;TITR;0,91;wt%;TITR;0,27;wt%;TITR;0,91;wt%;TITR;;;
GROSCAMP-W-238435;;GROSSMAN-CAMP;GROSSMAN, 1991;39,7236;-77,3653;0,001;;;CONTINENTAL_RIFT;;;;"AAS; COL; ICP; INAA; TITR; Unknown";WHOLE ROCK;IGNEOUS:VOLCANIC:MAFIC;DIABASE;;52,4;wt%;COL;2,07;wt%;COL;14,4;wt%;COL;;;;3,88;wt%;Unknown;;;;9,5;wt%;TITR;;;;;;;0,18;wt%;AAS;3,18;wt%;AAS;7,81;wt%;Unknown;;;;3,41;wt%;Unknown;1,39;wt%;AAS;0,25;wt%;COL;;;;;;;;;;0,32;wt%;TITR;1,4;wt%;TITR;;;;;;;;;;22;ppm;Unknown;43;ppm;Unknown;147;ppm;Unknown;;;;94;ppm;Unknown;1,5;ppm;INAA;;;;0,03;ppm;INAA;;;;;;;;;;;;;;;;;;;;;;;;;;;;;;;;;;;;;;;;;;;;;;;;;;;;;;;;;;;;;;;;;;;;;;;;;;;;;;;;;;;;;;;;;;;;;;;;;;;;;;;;;;;;;;;;;;;;;;;;;19,9;ppm;INAA;39;ppm;INAA;;;;25;ppm;INAA;6;ppm;INAA;1,6;ppm;INAA;;;;0,97;ppm;INAA;;;;;;;;;;;;;3,3;ppm;INAA;0,5;ppm;INAA;0,05;ppm;TITR;0,04;ppm;INAA;0,1;ppm;INAA;;;;;;;;;;;;;;;;;;;;;;1,5;ppm;INAA;;;;;;;310;ppm;Unknown;;;;;;;;;;;;;43;ppm;Unknown;6,1;ppm;Unknown;1,2;ppm;INAA;147;ppm;Unknown;;;;;;;4,2;ppm;INAA;;;;;;;;;;;;;;;;;;;;;;13;ppm;ICP;22;ppm;Unknown;;;;;;;;;;18;ppm;Unknown;4,4;ppm;Unknown;58;ppm;Unknown;;;;;;;;;;0,03;ppm;INAA;0,27;ppm;INAA;33;ppm;INAA;;;;243;ppm;Unknown;0,94;ppm;INAA;4,1;ppm;INAA;;;;;;;0,67;ppm;INAA;;;;;;;40;ppm;Unknown;94;ppm;Unknown;166;ppm;Unknown;;;;;;;;;;;;;;;;;;;;;;;;;1,5;ppm;INAA;1,5;ppm;INAA;;;;0,32;wt%;TITR;1,4;wt%;TITR;0,32;wt%;TITR;1,4;wt%;TITR;;;
GROSCAMP-W-238436;;GROSSMAN-CAMP;GROSSMAN, 1991;38,5153;-77,5375;0,001;;;CONTINENTAL_RIFT;;;;"AAS; COL; ICP; INAA; TITR; Unknown";WHOLE ROCK;IGNEOUS:VOLCANIC:MAFIC;DIABASE;;55,7;wt%;COL;0,95;wt%;COL;18,6;wt%;COL;;;;2,74;wt%;Unknown;;;;4,7;wt%;TITR;;;;;;;0,1;wt%;AAS;1,31;wt%;AAS;6,98;wt%;Unknown;;;;4,27;wt%;Unknown;2,38;wt%;AAS;0,25;wt%;COL;;;;;;;;;;0,17;wt%;TITR;1,5;wt%;TITR;;;;;;;;;;6;ppm;Unknown;17,9;ppm;Unknown;103;ppm;Unknown;;;;63;ppm;Unknown;4,1;ppm;INAA;;;;;;;;;;;;;;;;;;;;;;;;;;;;;;;;;;;;;;;;;;;;;;;;;;;;;;;;;;;;;;;;;;;;;;;;;;;;;;;;;;;;;;;;;;;;;;;;;;;;;;;;;;;;;;;;;;;;;;;;;;;;;;;22,8;ppm;INAA;46;ppm;INAA;;;;24;ppm;INAA;6,3;ppm;INAA;2,1;ppm;INAA;;;;1,1;ppm;INAA;;;;;;;;;;;;;3,2;ppm;INAA;0,46;ppm;INAA;0,03;ppm;TITR;0,03;ppm;INAA;0,04;ppm;INAA;;;;;;;;;;;;;;;;;;;;;;4,1;ppm;INAA;;;;;;;440;ppm;Unknown;;;;;;;;;;;;;17,9;ppm;Unknown;;;;0,7;ppm;INAA;103;ppm;Unknown;;;;;;;4,9;ppm;INAA;;;;;;;;;;;;;;;;;;;;;;13;ppm;ICP;6;ppm;Unknown;;;;;;;;;;8,5;ppm;Unknown;8,9;ppm;Unknown;83;ppm;Unknown;;;;;;;;;;;;;0,26;ppm;INAA;13,7;ppm;INAA;;;;510;ppm;Unknown;1;ppm;INAA;5;ppm;INAA;;;;;;;1,1;ppm;INAA;;;;;;;35;ppm;Unknown;63;ppm;Unknown;188;ppm;Unknown;;;;;;;;;;;;;;;;;;;;;;;;;4,1;ppm;INAA;4,1;ppm;INAA;;;;0,17;wt%;TITR;1,5;wt%;TITR;0,17;wt%;TITR;1,5;wt%;TITR;;;
GROSCAMP-W-238437;;GROSSMAN-CAMP;GROSSMAN, 1991;39,7333;-77,3653;0,001;;;CONTINENTAL_RIFT;;;;"AAS; COL; ICP; INAA; TITR; Unknown";WHOLE ROCK;IGNEOUS:VOLCANIC:MAFIC;DIABASE;;52,9;wt%;COL;1,85;wt%;COL;15,2;wt%;COL;;;;4,37;wt%;Unknown;;;;8,6;wt%;TITR;;;;;;;0,17;wt%;AAS;3,32;wt%;AAS;8,66;wt%;Unknown;;;;3,23;wt%;Unknown;0,98;wt%;AAS;0,22;wt%;COL;;;;;;;;;;0,28;wt%;TITR;0,83;wt%;TITR;;;;;;;;;;24;ppm;Unknown;44;ppm;Unknown;108;ppm;Unknown;;;;88;ppm;Unknown;3,3;ppm;INAA;;;;0,03;ppm;INAA;;;;;;;;;;;;;;;;;;;;;;;;;;;;;;;;;;;;;;;;;;;;;;;;;;;;;;;;;;;;;;;;;;;;;;;;;;;;;;;;;;;;;;;;;;;;;;;;;;;;;;;;;;;;;;;;;;;;;;;;;18,2;ppm;INAA;37;ppm;INAA;;;;19;ppm;INAA;5,5;ppm;INAA;1,57;ppm;INAA;;;;0,95;ppm;INAA;;;;;;;;;;;;;3,3;ppm;INAA;0,48;ppm;INAA;;;;0,03;ppm;INAA;0,08;ppm;INAA;;;;;;;;;;;;;;;;;;;;;;3,3;ppm;INAA;;;;;;;262;ppm;Unknown;;;;;;;;;;;;;44;ppm;Unknown;;;;1,1;ppm;INAA;108;ppm;Unknown;;;;;;;4,1;ppm;INAA;;;;;;;;;;;;;;;;;;;;;;11;ppm;ICP;24;ppm;Unknown;;;;;;;;;;17;ppm;Unknown;6;ppm;Unknown;38;ppm;Unknown;;;;0,5;ppm;Unknown;;;;0,03;ppm;INAA;0,36;ppm;INAA;33;ppm;INAA;;;;226;ppm;Unknown;0,88;ppm;INAA;4;ppm;INAA;;;;;;;0,94;ppm;INAA;;;;;;;35;ppm;Unknown;88;ppm;Unknown;150;ppm;Unknown;;;;;;;;;;;;;;;;;;;;;;;;;3,3;ppm;INAA;3,3;ppm;INAA;;;;0,28;wt%;TITR;0,83;wt%;TITR;0,28;wt%;TITR;0,83;wt%;TITR;;;
GROSCAMP-W-238438;;GROSSMAN-CAMP;GROSSMAN, 1991;39,725;-77,3083;0,001;;;CONTINENTAL_RIFT;;;;"AAS; COL; ICP; ICPMS; INAA; TITR; Unknown";WHOLE ROCK;IGNEOUS:VOLCANIC:MAFIC;DIABASE;;52,2;wt%;COL;1,14;wt%;COL;13,7;wt%;COL;;;;2,31;wt%;Unknown;;;;8,6;wt%;TITR;;;;;;;0,18;wt%;AAS;7,99;wt%;AAS;11,1;wt%;Unknown;;;;2,13;wt%;Unknown;0,54;wt%;AAS;0,14;wt%;COL;;;;;;;;;;0,11;wt%;TITR;0,55;wt%;TITR;;;;;;;;;;120;ppm;Unknown;48;ppm;Unknown;100;ppm;Unknown;;;;73;ppm;Unknown;;;;;;;0,01;ppm;INAA;;;;;;;;;;;;;;;;;;;;;;;;;;;;;;;;;;;;;;;;;;;;;;;;;;;;;;;;;;;;;;;;;;;;;;;;;;;;;;;;;;;;;;;;;;;;;;;;;;;;;;;;;;;;;;;;;;;;;;;;;11;ppm;INAA;21;ppm;INAA;;;;11;ppm;INAA;3,5;ppm;INAA;1,03;ppm;INAA;;;;0,6;ppm;INAA;;;;;;;;;;;;;2,1;ppm;INAA;0,33;ppm;INAA;0,02;ppm;TITR;0,02;ppm;INAA;0;ppm;INAA;;;;;;;;;;;;;;;;;;;;;;;;;;;;;;;144;ppm;Unknown;;;;;;;;;;;;;48;ppm;Unknown;380;ppm;Unknown;1,1;ppm;INAA;100;ppm;Unknown;;;;;;;2,5;ppm;INAA;;;;0,5;ppm;ICPMS;;;;;;;;;;;;;;;;6,7;ppm;ICP;120;ppm;Unknown;;;;;;;;;;11;ppm;Unknown;13;ppm;Unknown;18;ppm;Unknown;;;;0,6;ppm;Unknown;0,6;ppm;ICPMS;0,01;ppm;INAA;;;;38;ppm;INAA;;;;177;ppm;Unknown;0,51;ppm;INAA;2,3;ppm;INAA;;;;;;;0,53;ppm;INAA;;;;;;;24;ppm;Unknown;73;ppm;Unknown;99;ppm;Unknown;;;;;;;;;;;;;;;;;;;;;;;;;;;;;;;;;;0,11;wt%;TITR;0,55;wt%;TITR;0,11;wt%;TITR;0,55;wt%;TITR;;;
GROSCAMP-W-238439;;GROSSMAN-CAMP;GROSSMAN, 1991;40,2639;-78,9703;0,001;;;CONTINENTAL_RIFT;;;;"AAS; COL; ICP; INAA; TITR; Unknown";WHOLE ROCK;IGNEOUS:VOLCANIC:MAFIC;DIABASE;;60;wt%;COL;1,61;wt%;COL;11,8;wt%;COL;;;;5,39;wt%;Unknown;;;;7,6;wt%;TITR;;;;;;;0,16;wt%;AAS;0,85;wt%;AAS;4,78;wt%;Unknown;;;;3,32;wt%;Unknown;2,47;wt%;AAS;0,53;wt%;COL;;;;;;;;;;0,39;wt%;TITR;1;wt%;TITR;;;;;;;;;;;;;17;ppm;Unknown;370;ppm;Unknown;;;;85;ppm;Unknown;4,9;ppm;INAA;;;;0,02;ppm;INAA;;;;;;;;;;;;;;;;;;;;;;;;;;;;;;;;;;;;;;;;;;;;;;;;;;;;;;;;;;;;;;;;;;;;;;;;;;;;;;;;;;;;;;;;;;;;;;;;;;;;;;;;;;;;;;;;;;;;;;;;;52;ppm;INAA;99;ppm;INAA;;;;51;ppm;INAA;15;ppm;INAA;3,6;ppm;INAA;;;;2,5;ppm;INAA;;;;;;;;;;;;;7,5;ppm;INAA;1;ppm;INAA;;;;0,08;ppm;INAA;0,2;ppm;INAA;;;;;;;;;;;;;;;;;;;;;;4,9;ppm;INAA;;;;;;;630;ppm;Unknown;;;;;;;;;;;;;17;ppm;Unknown;8,8;ppm;Unknown;2;ppm;INAA;370;ppm;Unknown;;;;;;;9,2;ppm;INAA;;;;;;;;;;;;;;;;;;;;;;28;ppm;ICP;;;;;;;;;;;;;;;;;;;93;ppm;Unknown;;;;;;;;;;0,02;ppm;INAA;0,39;ppm;INAA;23,9;ppm;INAA;;;;201;ppm;Unknown;2,11;ppm;INAA;9;ppm;INAA;;;;;;;2,1;ppm;INAA;;;;;;;88;ppm;Unknown;85;ppm;Unknown;380;ppm;Unknown;;;;;;;;;;;;;;;;;;;;;;;;;4,9;ppm;INAA;4,9;ppm;INAA;;;;0,39;wt%;TITR;1;wt%;TITR;0,39;wt%;TITR;1;wt%;TITR;;;
GROSCAMP-W-241504;;GROSSMAN-CAMP;GROSSMAN, 1991;40,1167;-76,7;0,001;;;CONTINENTAL_RIFT;;;;"AAS; COL; INAA; TITR; Unknown";WHOLE ROCK;IGNEOUS:VOLCANIC:MAFIC;DIABASE;;52;wt%;COL;0,77;wt%;COL;11,95;wt%;COL;;;;1,17;wt%;Unknown;;;;8,44;wt%;TITR;;;;;;;0,17;wt%;AAS;11,1;wt%;AAS;11,15;wt%;Unknown;;;;1,5;wt%;Unknown;0,38;wt%;AAS;0,11;wt%;COL;;;;;;;;;;;;;;;;;;;;;;;;;;;;;;;;;;;;;;;;;;;;;;0,01;ppm;INAA;;;;;;;;;;;;;;;;;;;;;;;;;;;;;;;;;;;;;;;;;;;;;;;;;;;;;;;;;;;;;;;;;;;;;;;;;;;;;;;;;;;;;;;;;;;;;;;;;;;;;;;;;;;;;;;;;;;;;;;;;;;;;;;;;;;;;;;;;;;;;;;;;;;;;;;;;;;;;;;;;;;;;;;;;0,03;ppm;INAA;;;;;;;;;;;;;;;;;;;;;;;;;;;;;;;;;;;;;;;;;;;;;;;;;;;;;;;;;;;;;;;;;;;;;;;;;;;;;;;;;;;;;;;;;;;;;;;;;;;;;;;6,7;ppm;Unknown;12;ppm;Unknown;;;;;;;;;;;;;0,01;ppm;INAA;;;;;;;;;;;;;;;;;;;;;;;;;;;;;;;;;;;;;;;;;;;;;;;;;;;;;;;;;;;;;;;;;;;;;;;;;;;;;;;;;;;;;;;;;;
GROSCAMP-W-238440;;GROSSMAN-CAMP;GROSSMAN, 1991;40,0992;-76,9908;0,001;;;CONTINENTAL_RIFT;;;;"AAS; COL; ICP; INAA; TITR; Unknown";WHOLE ROCK;IGNEOUS:VOLCANIC:MAFIC;DIABASE;;51,4;wt%;COL;0,8;wt%;COL;14,9;wt%;COL;;;;2,09;wt%;Unknown;;;;9,2;wt%;TITR;;;;;;;0,2;wt%;AAS;7,52;wt%;AAS;11;wt%;Unknown;;;;2,22;wt%;Unknown;0,41;wt%;AAS;0,11;wt%;COL;;;;;;;;;;0,11;wt%;TITR;0,6;wt%;TITR;;;;;;;;;;61;ppm;Unknown;47;ppm;Unknown;53;ppm;Unknown;;;;77;ppm;Unknown;;;;;;;0,05;ppm;INAA;;;;;;;;;;;;;;;;;;;;;;;;;;;;;;;;;;;;;;;;;;;;;;;;;;;;;;;;;;;;;;;;;;;;;;;;;;;;;;;;;;;;;;;;;;;;;;;;;;;;;;;;;;;;;;;;;;;;;;;;;6,7;ppm;INAA;14;ppm;INAA;;;;8,7;ppm;INAA;2,47;ppm;INAA;0,8;ppm;INAA;;;;0,57;ppm;INAA;;;;;;;;;;;;;2,3;ppm;INAA;0,37;ppm;INAA;0,01;ppm;TITR;0,01;ppm;INAA;;;;;;;;;;;;;;;;;;;;;;;;;;;;;;;;;;118;ppm;Unknown;;;;;;;;;;;;;47;ppm;Unknown;200;ppm;Unknown;0,59;ppm;INAA;53;ppm;Unknown;;;;;;;1,6;ppm;INAA;;;;;;;;;;;;;;;;;;;;;;3,3;ppm;ICP;61;ppm;Unknown;;;;;;;;;;0,8;ppm;Unknown;3,7;ppm;Unknown;11;ppm;Unknown;;;;;;;;;;0,05;ppm;INAA;;;;44;ppm;INAA;;;;136;ppm;Unknown;0,32;ppm;INAA;1,4;ppm;INAA;;;;;;;0,5;ppm;INAA;;;;;;;22;ppm;Unknown;77;ppm;Unknown;66;ppm;Unknown;;;;;;;;;;;;;;;;;;;;;;;;;;;;;;;;;;0,11;wt%;TITR;0,6;wt%;TITR;0,11;wt%;TITR;0,6;wt%;TITR;;;
GROSCAMP-W-238441;;GROSSMAN-CAMP;GROSSMAN, 1991;40,1944;-76,8778;0,001;;;CONTINENTAL_RIFT;;;;"AAS; COL; ICP; INAA; TITR; Unknown";WHOLE ROCK;IGNEOUS:VOLCANIC:MAFIC;DIABASE;;52,2;wt%;COL;1,12;wt%;COL;14,4;wt%;COL;;;;3,04;wt%;Unknown;;;;7,6;wt%;TITR;;;;;;;0,17;wt%;AAS;6,85;wt%;AAS;10,7;wt%;Unknown;;;;2,26;wt%;Unknown;0,8;wt%;AAS;0,15;wt%;COL;;;;;;;;;;0,34;wt%;TITR;0,67;wt%;TITR;;;;;;;;;;95;ppm;Unknown;43;ppm;Unknown;121;ppm;Unknown;;;;73;ppm;Unknown;;;;;;;;;;;;;;;;;;;;;;;;;;;;;;;;;;;;;;;;;;;;;;;;;;;;;;;;;;;;;;;;;;;;;;;;;;;;;;;;;;;;;;;;;;;;;;;;;;;;;;;;;;;;;;;;;;;;;;;;;;;;;;;;;;11;ppm;INAA;23;ppm;INAA;;;;14;ppm;INAA;3,5;ppm;INAA;1,1;ppm;INAA;;;;0,61;ppm;INAA;;;;;;;;;;;;;2,2;ppm;INAA;0,36;ppm;INAA;0,01;ppm;TITR;0,02;ppm;INAA;0,03;ppm;INAA;;;;;;;;;;;;;;;;;;;;;;;;;;;;;;;197;ppm;Unknown;;;;;;;;;;;;;43;ppm;Unknown;310;ppm;Unknown;1,8;ppm;INAA;121;ppm;Unknown;;;;;;;2,4;ppm;INAA;;;;;;;;;;;;;;;;;;;;;;6,9;ppm;ICP;95;ppm;Unknown;;;;;;;;;;9,9;ppm;Unknown;10;ppm;Unknown;27;ppm;Unknown;;;;;;;;;;;;;;;;37;ppm;INAA;;;;201;ppm;Unknown;0,53;ppm;INAA;2,4;ppm;INAA;;;;;;;0,45;ppm;INAA;;;;;;;19;ppm;Unknown;73;ppm;Unknown;95;ppm;Unknown;;;;;;;;;;;;;;;;;;;;;;;;;;;;;;;;;;0,34;wt%;TITR;0,67;wt%;TITR;0,34;wt%;TITR;0,67;wt%;TITR;;;
GROSCAMP-W-238442;;GROSSMAN-CAMP;GROSSMAN, 1991;39,7333;-77,3653;0,001;;;CONTINENTAL_RIFT;;;;"AAS; COL; ICP; INAA; TITR; Unknown";WHOLE ROCK;IGNEOUS:VOLCANIC:MAFIC;DIABASE;;63,4;wt%;COL;1,26;wt%;COL;12,1;wt%;COL;;;;5,52;wt%;Unknown;;;;5,4;wt%;TITR;;;;;;;0,13;wt%;AAS;0,71;wt%;AAS;2,68;wt%;Unknown;;;;5,53;wt%;Unknown;1,82;wt%;AAS;0,39;wt%;COL;;;;;;;;;;0,13;wt%;TITR;0,78;wt%;TITR;;;;;;;;;;6;ppm;Unknown;12,2;ppm;Unknown;174;ppm;Unknown;;;;65;ppm;Unknown;;;;;;;;;;;;;;;;;;;;;;;;;;;;;;;;;;;;;;;;;;;;;;;;;;;;;;;;;;;;;;;;;;;;;;;;;;;;;;;;;;;;;;;;;;;;;;;;;;;;;;;;;;;;;;;;;;;;;;;;;;;;;;;;;;46;ppm;INAA;92;ppm;INAA;;;;44;ppm;INAA;11,5;ppm;INAA;2,28;ppm;INAA;;;;1,8;ppm;INAA;;;;;;;;;;;;;6;ppm;INAA;0,85;ppm;INAA;;;;0,08;ppm;INAA;0,07;ppm;INAA;;;;;;;;;;;;;;;;;;;;;;;;;;;;;;;252;ppm;Unknown;;;;;;;;;;;;;12,2;ppm;Unknown;;;;0,47;ppm;INAA;174;ppm;Unknown;;;;;;;10,7;ppm;INAA;;;;;;;;;;;;;;;;;;;;;;23;ppm;ICP;6;ppm;Unknown;;;;;;;;;;;;;;;;41;ppm;Unknown;;;;;;;;;;;;;0,19;ppm;INAA;18,7;ppm;INAA;;;;94;ppm;Unknown;2,15;ppm;INAA;9,9;ppm;INAA;;;;;;;1,6;ppm;INAA;;;;;;;61;ppm;Unknown;65;ppm;Unknown;400;ppm;Unknown;;;;;;;;;;;;;;;;;;;;;;;;;;;;;;;;;;0,13;wt%;TITR;0,78;wt%;TITR;0,13;wt%;TITR;0,78;wt%;TITR;;;
GROSCAMP-W-238443;;GROSSMAN-CAMP;GROSSMAN, 1991;38,5153;-77,5375;0,001;;;CONTINENTAL_RIFT;;;;"AAS; COL; ICP; INAA; TITR; Unknown";WHOLE ROCK;IGNEOUS:VOLCANIC:MAFIC;DIABASE;;52,6;wt%;COL;1,47;wt%;COL;15,2;wt%;COL;;;;2,93;wt%;Unknown;;;;8,9;wt%;TITR;;;;;;;0,17;wt%;AAS;4,57;wt%;AAS;9,83;wt%;Unknown;;;;2,68;wt%;Unknown;0,86;wt%;AAS;0,19;wt%;COL;;;;;;;;;;0,12;wt%;TITR;1;wt%;TITR;;;;;;;;;;38;ppm;Unknown;44;ppm;Unknown;107;ppm;Unknown;;;;68;ppm;Unknown;1,5;ppm;INAA;;;;;;;;;;;;;;;;;;;;;;;;;;;;;;;;;;;;;;;;;;;;;;;;;;;;;;;;;;;;;;;;;;;;;;;;;;;;;;;;;;;;;;;;;;;;;;;;;;;;;;;;;;;;;;;;;;;;;;;;;;;;;;;15;ppm;INAA;30;ppm;INAA;;;;19;ppm;INAA;4,6;ppm;INAA;1,33;ppm;INAA;;;;0,76;ppm;INAA;;;;;;;;;;;;;2,5;ppm;INAA;0,46;ppm;INAA;;;;0,03;ppm;INAA;0,03;ppm;INAA;;;;;;;;;;;;;;;;;;;;;;1,5;ppm;INAA;;;;;;;233;ppm;Unknown;;;;;;;;;;;;;44;ppm;Unknown;22;ppm;Unknown;1,5;ppm;INAA;107;ppm;Unknown;;;;;;;3,3;ppm;INAA;;;;;;;;;;;;;;;;;;;;;;8,6;ppm;ICP;38;ppm;Unknown;;;;;;;;;;13;ppm;Unknown;6,1;ppm;Unknown;37;ppm;Unknown;;;;;;;;;;;;;;;;34;ppm;INAA;;;;255;ppm;Unknown;0,71;ppm;INAA;3,1;ppm;INAA;;;;;;;0,69;ppm;INAA;;;;;;;30;ppm;Unknown;68;ppm;Unknown;137;ppm;Unknown;;;;;;;;;;;;;;;;;;;;;;;;;1,5;ppm;INAA;1,5;ppm;INAA;;;;0,12;wt%;TITR;1;wt%;TITR;0,12;wt%;TITR;1;wt%;TITR;;;