SAMPLE ID;IGSN;EXPEDITION ID;REFERENCES;LATITUDE;LONGITUDE;LOC PREC;MIN ELEVATION;MAX ELEVATION;TECTONIC SETTING;MIN AGE;AGE;MAX AGE;METHOD;ANALYZED MATERIAL;ROCK TYPE;ROCK NAME;MINERAL;SIO2;SIO2 Units;SIO2 Method;TIO2;TIO2 Units;TIO2 Method;AL2O3;AL2O3 Units;AL2O3 Method;CR2O3;CR2O3 Units;CR2O3 Method;FE2O3;FE2O3 Units;FE2O3 Method;FE2O3T;FE2O3T Units;FE2O3T Method;FEO;FEO Units;FEO Method;FEOT;FEOT Units;FEOT Method;NIO;NIO Units;NIO Method;MNO;MNO Units;MNO Method;MGO;MGO Units;MGO Method;CAO;CAO Units;CAO Method;SRO;SRO Units;SRO Method;NA2O;NA2O Units;NA2O Method;K2O;K2O Units;K2O Method;P2O5;P2O5 Units;P2O5 Method;BAO;BAO Units;BAO Method;LOI;LOI Units;LOI Method;H2O;H2O Units;H2O Method;H2O_M;H2O_M Units;H2O_M Method;H2O_P;H2O_P Units;H2O_P Method;SO3;SO3 Units;SO3 Method;COO;COO Units;COO Method;MN;MN Units;MN Method;NI;NI Units;NI Method;CO;CO Units;CO Method;CU;CU Units;CU Method;CD;CD Units;CD Method;ZN;ZN Units;ZN Method;AS;AS Units;AS Method;AG;AG Units;AG Method;S;S Units;S Method;ZRO2;ZRO2 Units;ZRO2 Method;AL;AL Units;AL Method;CA;CA Units;CA Method;SR87_SR86;SR87_SR86 Units;SR87_SR86 Method;SR87_SR86_INI;SR87_SR86_INI Units;SR87_SR86_INI Method;RB87_SR86;RB87_SR86 Units;RB87_SR86 Method;ND143_ND144;ND143_ND144 Units;ND143_ND144 Method;ND143_ND144_INI;ND143_ND144_INI Units;ND143_ND144_INI Method;SM147_ND144;SM147_ND144 Units;SM147_ND144 Method;E_ND;E_ND Units;E_ND Method;E_ND_INI;E_ND_INI Units;E_ND_INI Method;PB204_PB206;PB204_PB206 Units;PB204_PB206 Method;PB206_PB204;PB206_PB204 Units;PB206_PB204 Method;PB206_PB204_INI;PB206_PB204_INI Units;PB206_PB204_INI Method;PB207_PB204;PB207_PB204 Units;PB207_PB204 Method;PB207_PB204_INI;PB207_PB204_INI Units;PB207_PB204_INI Method;PB207_PB206;PB207_PB206 Units;PB207_PB206 Method;PB208_PB204;PB208_PB204 Units;PB208_PB204 Method;PB208_PB204_INI;PB208_PB204_INI Units;PB208_PB204_INI Method;PB208_PB206;PB208_PB206 Units;PB208_PB206 Method;HF176_HF177;HF176_HF177 Units;HF176_HF177 Method;RE187_OS188;RE187_OS188 Units;RE187_OS188 Method;OS187_OS188;OS187_OS188 Units;OS187_OS188 Method;OS187_OS188_INI;OS187_OS188_INI Units;OS187_OS188_INI Method;G_OS;G_OS Units;G_OS Method;G_OS_INI;G_OS_INI Units;G_OS_INI Method;ND143_ND144_INI;ND143_ND144_INI Units;ND143_ND144_INI Method;PB206_PB204_INI;PB206_PB204_INI Units;PB206_PB204_INI Method;PB207_PB204_INI;PB207_PB204_INI Units;PB207_PB204_INI Method;PB208_PB204_INI;PB208_PB204_INI Units;PB208_PB204_INI Method;SR87_SR86_INI;SR87_SR86_INI Units;SR87_SR86_INI Method;HE;HE Units;HE Method;HE3;HE3 Units;HE3 Method;HE3_HE4_R_RA;HE3_HE4_R_RA Units;HE3_HE4_R_RA Method;AR36;AR36 Units;AR36 Method;AR40;AR40 Units;AR40 Method;AR40_AR36;AR40_AR36 Units;AR40_AR36 Method;NE20;NE20 Units;NE20 Method;NE20_NE22;NE20_NE22 Units;NE20_NE22 Method;NE21_NE22;NE21_NE22 Units;NE21_NE22 Method;LA;LA Units;LA Method;CE;CE Units;CE Method;PR;PR Units;PR Method;ND;ND Units;ND Method;SM;SM Units;SM Method;EU;EU Units;EU Method;GD;GD Units;GD Method;TB;TB Units;TB Method;DY;DY Units;DY Method;HO;HO Units;HO Method;ER;ER Units;ER Method;TM;TM Units;TM Method;YB;YB Units;YB Method;LU;LU Units;LU Method;CO2;CO2 Units;CO2 Method;F;F Units;F Method;CL;CL Units;CL Method;U238_PB204;U238_PB204 Units;U238_PB204 Method;TH230_TH232;TH230_TH232 Units;TH230_TH232 Method;RA226_ACTIVITY;RA226_ACTIVITY Units;RA226_ACTIVITY Method;PB210_RA226;PB210_RA226 Units;PB210_RA226 Method;PB210_ACTIVITY;PB210_ACTIVITY Units;PB210_ACTIVITY Method;AG;AG Units;AG Method;AL;AL Units;AL Method;AS;AS Units;AS Method;AU;AU Units;AU Method;B;B Units;B Method;BA;BA Units;BA Method;BE;BE Units;BE Method;BI;BI Units;BI Method;CA;CA Units;CA Method;CD;CD Units;CD Method;CO;CO Units;CO Method;CR;CR Units;CR Method;CS;CS Units;CS Method;CU;CU Units;CU Method;GA;GA Units;GA Method;GER;GER Units;GER Method;HF;HF Units;HF Method;INDIUM;INDIUM Units;INDIUM Method;IR;IR Units;IR Method;K;K Units;K Method;LI;LI Units;LI Method;MN;MN Units;MN Method;MO;MO Units;MO Method;NA;NA Units;NA Method;NB;NB Units;NB Method;NI;NI Units;NI Method;OS;OS Units;OS Method;P;P Units;P Method;PB;PB Units;PB Method;PD;PD Units;PD Method;PT;PT Units;PT Method;RB;RB Units;RB Method;RE;RE Units;RE Method;RH;RH Units;RH Method;RU;RU Units;RU Method;S;S Units;S Method;SB;SB Units;SB Method;SC;SC Units;SC Method;SN;SN Units;SN Method;SR;SR Units;SR Method;TA;TA Units;TA Method;TH;TH Units;TH Method;TI;TI Units;TI Method;TL;TL Units;TL Method;U;U Units;U Method;V;V Units;V Method;W;W Units;W Method;Y;Y Units;Y Method;ZN;ZN Units;ZN Method;ZR;ZR Units;ZR Method;DELTA_O18;DELTA_O18 Units;DELTA_O18 Method;DELTA_C13;DELTA_C13 Units;DELTA_C13 Method;DELTA_MO98;DELTA_MO98 Units;DELTA_MO98 Method;DELTA_ZN66;DELTA_ZN66 Units;DELTA_ZN66 Method;DELTA_ZN68;DELTA_ZN68 Units;DELTA_ZN68 Method;OS188;OS188 Units;OS188 Method;FE3P_FET;FE3P_FET Units;FE3P_FET Method;TI;TI Units;TI Method;AS;AS Units;AS Method;AS;AS Units;AS Method;GER;GER Units;GER Method;H2O_M;H2O_M Units;H2O_M Method;H2O_P;H2O_P Units;H2O_P Method;H2O_M;H2O_M Units;H2O_M Method;H2O_P;H2O_P Units;H2O_P Method;INDIUM;INDIUM Units;INDIUM Method
GROSCAMP-W-217714;;GROSSMAN-CAMP;GROSSMAN, 1991;38,7681;-77,5236;0,001;;;CONTINENTAL_RIFT;;;;"AAS; COL; ICP; INAA; TITR; Unknown";WHOLE ROCK;IGNEOUS:VOLCANIC:MAFIC;DIABASE;;51,5;wt%;COL;2,4;wt%;COL;13,7;wt%;COL;;;;3,5;wt%;Unknown;;;;11;wt%;TITR;;;;;;;0,24;wt%;AAS;4,2;wt%;AAS;8,9;wt%;Unknown;;;;2,56;wt%;Unknown;0,97;wt%;AAS;0,23;wt%;COL;;;;;;;;;;0,33;wt%;TITR;0,78;wt%;TITR;;;;;;;;;;55;ppm;Unknown;51;ppm;Unknown;170;ppm;Unknown;;;;204;ppm;Unknown;;;;;;;;;;;;;;;;;;;;;;;;;;;;;;;;;;;;;;;;;;;;;;;;;;;;;;;;;;;;;;;;;;;;;;;;;;;;;;;;;;;;;;;;;;;;;;;;;;;;;;;;;;;;;;;;;;;;;;;;;;;;;;;;;;16,1;ppm;INAA;34;ppm;INAA;;;;20;ppm;INAA;5,1;ppm;INAA;1,39;ppm;INAA;;;;0,86;ppm;INAA;;;;;;;;;;;;;2,51;ppm;INAA;0,45;ppm;INAA;0,07;ppm;TITR;;;;;;;;;;;;;;;;;;;;;;;;;;;;;;;;;;;;;263;ppm;Unknown;;;;;;;;;;;;;51;ppm;Unknown;6,7;ppm;Unknown;1,8;ppm;INAA;170;ppm;Unknown;;;;;;;3,6;ppm;INAA;;;;;;;;;;;;;;;;;;;;;;15;ppm;ICP;55;ppm;Unknown;;;;;;;;;;6,5;ppm;Unknown;1,1;ppm;Unknown;32;ppm;Unknown;;;;;;;;;;;;;;;;38;ppm;INAA;;;;205;ppm;Unknown;0,85;ppm;INAA;3,2;ppm;INAA;;;;;;;0,67;ppm;INAA;;;;;;;32;ppm;Unknown;204;ppm;Unknown;156;ppm;Unknown;;;;;;;;;;;;;;;;;;;;;;;;;;;;;;;;;;0,33;wt%;TITR;0,78;wt%;TITR;0,33;wt%;TITR;0,78;wt%;TITR;;;
GROSCAMP-W-217715;;GROSSMAN-CAMP;GROSSMAN, 1991;38,7681;-77,5236;0,001;;;CONTINENTAL_RIFT;;;;"AAS; COL; ICP; INAA; TITR; Unknown";WHOLE ROCK;IGNEOUS:VOLCANIC:MAFIC;DIABASE;;52,2;wt%;COL;1,7;wt%;COL;14,9;wt%;COL;;;;2,9;wt%;Unknown;;;;9,5;wt%;TITR;;;;;;;0,17;wt%;AAS;4,1;wt%;AAS;9;wt%;Unknown;;;;2,83;wt%;Unknown;1,1;wt%;AAS;0,21;wt%;COL;;;;;;;;;;0,28;wt%;TITR;0,95;wt%;TITR;;;;;;;;;;52;ppm;Unknown;44;ppm;Unknown;170;ppm;Unknown;;;;107;ppm;Unknown;;;;;;;;;;;;;;;;;;;;;;;;;;;;;;;;;;;;;;;;;;;;;;;;;;;;;;;;;;;;;;;;;;;;;;;;;;;;;;;;;;;;;;;;;;;;;;;;;;;;;;;;;;;;;;;;;;;;;;;;;;;;;;;;;;14,9;ppm;INAA;32;ppm;INAA;;;;11;ppm;INAA;4,6;ppm;INAA;1,38;ppm;INAA;;;;0,78;ppm;INAA;;;;;;;;;;;;;2,56;ppm;INAA;0,4;ppm;INAA;0,06;ppm;TITR;;;;;;;;;;;;;;;;;;;;;;;;;;;;;;;;;;;;;244;ppm;Unknown;;;;;;;;;;;;;44;ppm;Unknown;10;ppm;Unknown;1,7;ppm;INAA;170;ppm;Unknown;;;;;;;3,5;ppm;INAA;;;;;;;;;;;;;;;;;;;;;;12;ppm;ICP;52;ppm;Unknown;;;;;;;;;;9,2;ppm;Unknown;3,2;ppm;Unknown;40;ppm;Unknown;;;;;;;;;;;;;;;;35;ppm;INAA;;;;270;ppm;Unknown;0,76;ppm;INAA;3;ppm;INAA;;;;;;;0,41;ppm;INAA;;;;;;;31;ppm;Unknown;107;ppm;Unknown;133;ppm;Unknown;;;;;;;;;;;;;;;;;;;;;;;;;;;;;;;;;;0,28;wt%;TITR;0,95;wt%;TITR;0,28;wt%;TITR;0,95;wt%;TITR;;;
GROSCAMP-W-217716;;GROSSMAN-CAMP;GROSSMAN, 1991;38,7681;-77,5236;0,001;;;CONTINENTAL_RIFT;;;;"AAS; COL; ICP; INAA; TITR; Unknown";WHOLE ROCK;IGNEOUS:VOLCANIC:MAFIC;DIABASE;;50,4;wt%;COL;2,3;wt%;COL;14,1;wt%;COL;;;;2,8;wt%;Unknown;;;;7,9;wt%;TITR;;;;;;;0,26;wt%;AAS;4,3;wt%;AAS;10,3;wt%;Unknown;;;;4,18;wt%;Unknown;0,7;wt%;AAS;0,16;wt%;COL;;;;;;;;;;0,17;wt%;TITR;2,1;wt%;TITR;;;;;;;;;;45;ppm;Unknown;35;ppm;Unknown;87;ppm;Unknown;;;;93;ppm;Unknown;;;;;;;;;;;;;;;;;;;;;;;;;;;;;;;;;;;;;;;;;;;;;;;;;;;;;;;;;;;;;;;;;;;;;;;;;;;;;;;;;;;;;;;;;;;;;;;;;;;;;;;;;;;;;;;;;;;;;;;;;;;;;;;;;;19,2;ppm;INAA;48;ppm;INAA;;;;26;ppm;INAA;5,6;ppm;INAA;1,86;ppm;INAA;;;;0,8;ppm;INAA;;;;;;;;;;;;;2,6;ppm;INAA;0,43;ppm;INAA;0,69;ppm;TITR;;;;;;;;;;;;;;;;;;;;;;;;;;;;;;;;;;;;;104;ppm;Unknown;;;;;;;;;;;;;35;ppm;Unknown;10;ppm;Unknown;0,48;ppm;INAA;87;ppm;Unknown;;;;;;;3,1;ppm;INAA;;;;;;;;;;;;;;;;;;;;;;13;ppm;ICP;45;ppm;Unknown;;;;;;;;;;9,1;ppm;Unknown;2,9;ppm;Unknown;31;ppm;Unknown;;;;;;;;;;;;;;;;37;ppm;INAA;;;;201;ppm;Unknown;0,72;ppm;INAA;2,8;ppm;INAA;;;;;;;1,9;ppm;INAA;;;;;;;28;ppm;Unknown;93;ppm;Unknown;129;ppm;Unknown;;;;;;;;;;;;;;;;;;;;;;;;;;;;;;;;;;0,17;wt%;TITR;2,1;wt%;TITR;0,17;wt%;TITR;2,1;wt%;TITR;;;
GROSCAMP-W-217717;;GROSSMAN-CAMP;GROSSMAN, 1991;38,7681;-77,5236;0,001;;;CONTINENTAL_RIFT;;;;"AAS; COL; ICP; INAA; TITR; Unknown";WHOLE ROCK;IGNEOUS:VOLCANIC:MAFIC;DIABASE;;52,7;wt%;COL;1,5;wt%;COL;15,9;wt%;COL;;;;2,9;wt%;Unknown;;;;8,2;wt%;TITR;;;;;;;0,16;wt%;AAS;3,8;wt%;AAS;8,6;wt%;Unknown;;;;2,97;wt%;Unknown;1,3;wt%;AAS;0,21;wt%;COL;;;;;;;;;;0,35;wt%;TITR;1,4;wt%;TITR;;;;;;;;;;48;ppm;Unknown;41;ppm;Unknown;120;ppm;Unknown;;;;100;ppm;Unknown;;;;;;;;;;;;;;;;;;;;;;;;;;;;;;;;;;;;;;;;;;;;;;;;;;;;;;;;;;;;;;;;;;;;;;;;;;;;;;;;;;;;;;;;;;;;;;;;;;;;;;;;;;;;;;;;;;;;;;;;;;;;;;;;;;16,1;ppm;INAA;33;ppm;INAA;;;;19;ppm;INAA;4,6;ppm;INAA;1,41;ppm;INAA;;;;0,78;ppm;INAA;;;;;;;;;;;;;2,25;ppm;INAA;0,38;ppm;INAA;0,07;ppm;TITR;;;;;;;;;;;;;;;;;;;;;;;;;;;;;;;;;;;;;269;ppm;Unknown;;;;;;;;;;;;;41;ppm;Unknown;9,8;ppm;Unknown;2,31;ppm;INAA;120;ppm;Unknown;;;;;;;3,4;ppm;INAA;;;;;;;;;;;;;;;;;;;;;;12;ppm;ICP;48;ppm;Unknown;;;;;;;;;;10;ppm;Unknown;3,6;ppm;Unknown;54;ppm;Unknown;;;;;;;;;;;;;;;;33;ppm;INAA;;;;330;ppm;Unknown;0,74;ppm;INAA;3;ppm;INAA;;;;;;;0,66;ppm;INAA;;;;;;;26;ppm;Unknown;100;ppm;Unknown;123;ppm;Unknown;;;;;;;;;;;;;;;;;;;;;;;;;;;;;;;;;;0,35;wt%;TITR;1,4;wt%;TITR;0,35;wt%;TITR;1,4;wt%;TITR;;;
GROSCAMP-W-217718;;GROSSMAN-CAMP;GROSSMAN, 1991;38,7681;-77,5236;0,001;;;CONTINENTAL_RIFT;;;;"AAS; COL; ICP; INAA; TITR; Unknown";WHOLE ROCK;IGNEOUS:VOLCANIC:MAFIC;DIABASE;;50,6;wt%;COL;1,4;wt%;COL;15,6;wt%;COL;;;;3,1;wt%;Unknown;;;;6,1;wt%;TITR;;;;;;;0,14;wt%;AAS;3,3;wt%;AAS;12,8;wt%;Unknown;;;;4,18;wt%;Unknown;0,19;wt%;AAS;0,18;wt%;COL;;;;;;;;;;0,29;wt%;TITR;2,7;wt%;TITR;;;;;;;;;;48;ppm;Unknown;34;ppm;Unknown;250;ppm;Unknown;;;;87;ppm;Unknown;;;;;;;;;;;;;;;;;;;;;;;;;;;;;;;;;;;;;;;;;;;;;;;;;;;;;;;;;;;;;;;;;;;;;;;;;;;;;;;;;;;;;;;;;;;;;;;;;;;;;;;;;;;;;;;;;;;;;;;;;;;;;;;;;;14,4;ppm;INAA;30;ppm;INAA;;;;19;ppm;INAA;4,2;ppm;INAA;1,66;ppm;INAA;;;;0,73;ppm;INAA;;;;;;;;;;;;;2,2;ppm;INAA;0,39;ppm;INAA;0,04;ppm;TITR;;;;;;;;;;;;;;;;;;;;;;;;;;;;;;;;;;;;;58;ppm;Unknown;;;;;;;;;;;;;34;ppm;Unknown;11;ppm;Unknown;;;;250;ppm;Unknown;;;;;;;2,93;ppm;INAA;;;;;;;;;;;;;;;;;;;;;;10;ppm;ICP;48;ppm;Unknown;;;;;;;;;;9,2;ppm;Unknown;5,8;ppm;Unknown;5;ppm;Unknown;;;;;;;;;;;;;;;;35;ppm;INAA;;;;93;ppm;Unknown;0,62;ppm;INAA;2,6;ppm;INAA;;;;;;;0,79;ppm;INAA;;;;;;;27;ppm;Unknown;87;ppm;Unknown;113;ppm;Unknown;;;;;;;;;;;;;;;;;;;;;;;;;;;;;;;;;;0,29;wt%;TITR;2,7;wt%;TITR;0,29;wt%;TITR;2,7;wt%;TITR;;;
GROSCAMP-W-217719;;GROSSMAN-CAMP;GROSSMAN, 1991;38,7681;-77,5236;0,001;;;CONTINENTAL_RIFT;;;;"AAS; COL; ICP; INAA; TITR; Unknown";WHOLE ROCK;IGNEOUS:VOLCANIC:MAFIC;DIABASE;;51,2;wt%;COL;1,2;wt%;COL;16,8;wt%;COL;;;;2,2;wt%;Unknown;;;;7,6;wt%;TITR;;;;;;;0,17;wt%;AAS;3,8;wt%;AAS;6,9;wt%;Unknown;;;;4,85;wt%;Unknown;1,5;wt%;AAS;0,2;wt%;COL;;;;;;;;;;0,35;wt%;TITR;2,7;wt%;TITR;;;;;;;;;;46;ppm;Unknown;36;ppm;Unknown;160;ppm;Unknown;;;;108;ppm;Unknown;;;;;;;;;;;;;;;;;;;;;;;;;;;;;;;;;;;;;;;;;;;;;;;;;;;;;;;;;;;;;;;;;;;;;;;;;;;;;;;;;;;;;;;;;;;;;;;;;;;;;;;;;;;;;;;;;;;;;;;;;;;;;;;;;;14,1;ppm;INAA;27,7;ppm;INAA;;;;15;ppm;INAA;4,2;ppm;INAA;1,41;ppm;INAA;;;;0,7;ppm;INAA;;;;;;;;;;;;;2,15;ppm;INAA;0,34;ppm;INAA;0,54;ppm;TITR;;;;;;;;;;;;;;;;;;;;;;;;;;;;;;;;;;;;;330;ppm;Unknown;;;;;;;;;;;;;36;ppm;Unknown;8,3;ppm;Unknown;0,86;ppm;INAA;160;ppm;Unknown;;;;;;;2,84;ppm;INAA;;;;;;;;;;;;;;;;;;;;;;11;ppm;ICP;46;ppm;Unknown;;;;;;;;;;8,1;ppm;Unknown;4,5;ppm;Unknown;75;ppm;Unknown;;;;;;;;;;;;;;;;27,9;ppm;INAA;;;;440;ppm;Unknown;0,66;ppm;INAA;2,6;ppm;INAA;;;;;;;0,7;ppm;INAA;;;;;;;28;ppm;Unknown;108;ppm;Unknown;111;ppm;Unknown;;;;;;;;;;;;;;;;;;;;;;;;;;;;;;;;;;0,35;wt%;TITR;2,7;wt%;TITR;0,35;wt%;TITR;2,7;wt%;TITR;;;
GROSCAMP-W-223030;;GROSSMAN-CAMP;GROSSMAN, 1991;39,1772;-77,3275;0,0001;;;CONTINENTAL_RIFT;;;;"AAS; COL; ICP; INAA; TITR; Unknown";WHOLE ROCK;IGNEOUS:VOLCANIC:MAFIC;DIABASE;;52,4;wt%;COL;0,82;wt%;COL;11,6;wt%;COL;;;;1,8;wt%;Unknown;;;;9,1;wt%;TITR;;;;;;;0,19;wt%;AAS;13;wt%;AAS;9,6;wt%;Unknown;;;;1,13;wt%;Unknown;0,5;wt%;AAS;0,12;wt%;COL;;;;;;;;;;0,31;wt%;TITR;0,21;wt%;TITR;;;;;;;;;;190;ppm;Unknown;63;ppm;Unknown;91;ppm;Unknown;;;;85;ppm;Unknown;;;;;;;;;;;;;;;;;;;;;;;;;;;;;;;;;;;;;;;;;;;;;;;;;;;;;;;;;;;;;;;;;;;;;;;;;;;;;;;;;;;;;;;;;;;;;;;;;;;;;;;;;;;;;;;;;;;;;;;;;;;;;;;;;;7,1;ppm;INAA;15,5;ppm;INAA;;;;13;ppm;INAA;2,4;ppm;INAA;0,73;ppm;INAA;;;;0,39;ppm;INAA;;;;;;;;;;;;;1,6;ppm;INAA;0,24;ppm;INAA;0,03;ppm;TITR;;;;;;;;;;;;;;;;;;;;;;;;;;;;;;;;;;;;;111;ppm;Unknown;;;;;;;;;;;;;63;ppm;Unknown;650;ppm;Unknown;0,8;ppm;INAA;91;ppm;Unknown;;;;;;;1,72;ppm;INAA;;;;;;;;;;;;;;;;;;;;;;4,1;ppm;ICP;190;ppm;Unknown;;;;;;;;;;8,3;ppm;Unknown;22;ppm;Unknown;13;ppm;Unknown;;;;;;;;;;;;;;;;36;ppm;INAA;;;;141;ppm;Unknown;0,38;ppm;INAA;1,53;ppm;INAA;;;;;;;;;;;;;;;;20;ppm;Unknown;85;ppm;Unknown;75;ppm;Unknown;;;;;;;;;;;;;;;;;;;;;;;;;;;;;;;;;;0,31;wt%;TITR;0,21;wt%;TITR;0,31;wt%;TITR;0,21;wt%;TITR;;;
GROSCAMP-W-223031;;GROSSMAN-CAMP;GROSSMAN, 1991;39,1772;-77,3275;0,0001;;;CONTINENTAL_RIFT;;;;"AAS; COL; ICP; INAA; TITR; Unknown";WHOLE ROCK;IGNEOUS:VOLCANIC:MAFIC;DIABASE;;52;wt%;COL;0,94;wt%;COL;13,1;wt%;COL;;;;1,6;wt%;Unknown;;;;8,6;wt%;TITR;;;;;;;0,18;wt%;AAS;10,1;wt%;AAS;10,7;wt%;Unknown;;;;1,27;wt%;Unknown;0,62;wt%;AAS;0,13;wt%;COL;;;;;;;;;;0,32;wt%;TITR;0,43;wt%;TITR;;;;;;;;;;170;ppm;Unknown;52;ppm;Unknown;94;ppm;Unknown;;;;229;ppm;Unknown;;;;;;;;;;;;;;;;;;;;;;;;;;;;;;;;;;;;;;;;;;;;;;;;;;;;;;;;;;;;;;;;;;;;;;;;;;;;;;;;;;;;;;;;;;;;;;;;;;;;;;;;;;;;;;;;;;;;;;;;;;;;;;;;;;8,5;ppm;INAA;18,8;ppm;INAA;;;;;;;2,77;ppm;INAA;0,87;ppm;INAA;;;;0,51;ppm;INAA;;;;;;;;;;;;;1,8;ppm;INAA;0,267;ppm;INAA;0,03;ppm;TITR;;;;;;;;;;;;;;;;;;;;;;;;;;;;;;;;;;;;;145;ppm;Unknown;;;;;;;;;;;;;52;ppm;Unknown;530;ppm;Unknown;0,77;ppm;INAA;94;ppm;Unknown;;;;;;;2,02;ppm;INAA;;;;;;;;;;;;;;;;;;;;;;5,1;ppm;ICP;170;ppm;Unknown;;;;;;;;;;9,6;ppm;Unknown;17;ppm;Unknown;18;ppm;Unknown;;;;;;;;;;;;;;;;36;ppm;INAA;;;;164;ppm;Unknown;0,46;ppm;INAA;1,74;ppm;INAA;;;;;;;;;;;;;;;;20;ppm;Unknown;229;ppm;Unknown;87;ppm;Unknown;;;;;;;;;;;;;;;;;;;;;;;;;;;;;;;;;;0,32;wt%;TITR;0,43;wt%;TITR;0,32;wt%;TITR;0,43;wt%;TITR;;;
GROSCAMP-W-223032;;GROSSMAN-CAMP;GROSSMAN, 1991;39,1772;-77,3275;0,0001;;;CONTINENTAL_RIFT;;;;"AAS; COL; ICP; INAA; TITR; Unknown";WHOLE ROCK;IGNEOUS:VOLCANIC:MAFIC;DIABASE;;52,3;wt%;COL;1;wt%;COL;13,8;wt%;COL;;;;1,6;wt%;Unknown;;;;8,6;wt%;TITR;;;;;;;0,19;wt%;AAS;8,5;wt%;AAS;10,8;wt%;Unknown;;;;1,29;wt%;Unknown;0,7;wt%;AAS;0,14;wt%;COL;;;;;;;;;;0,31;wt%;TITR;0,59;wt%;TITR;;;;;;;;;;130;ppm;Unknown;49;ppm;Unknown;112;ppm;Unknown;;;;88;ppm;Unknown;;;;;;;;;;;;;;;;;;;;;;;;;;;;;;;;;;;;;;;;;;;;;;;;;;;;;;;;;;;;;;;;;;;;;;;;;;;;;;;;;;;;;;;;;;;;;;;;;;;;;;;;;;;;;;;;;;;;;;;;;;;;;;;;;;9,9;ppm;INAA;20,7;ppm;INAA;;;;12;ppm;INAA;3,2;ppm;INAA;0,97;ppm;INAA;;;;0,52;ppm;INAA;;;;;;;;;;;;;1,94;ppm;INAA;0,296;ppm;INAA;0,03;ppm;TITR;;;;;;;;;;;;;;;;;;;;;;;;;;;;;;;;;;;;;157;ppm;Unknown;;;;;;;;;;;;;49;ppm;Unknown;400;ppm;Unknown;1;ppm;INAA;112;ppm;Unknown;;;;;;;2,31;ppm;INAA;;;;;;;;;;;;;;;;;;;;;;7;ppm;ICP;130;ppm;Unknown;;;;;;;;;;11;ppm;Unknown;13;ppm;Unknown;19;ppm;Unknown;;;;;;;;;;;;;;;;36;ppm;INAA;;;;170;ppm;Unknown;0,44;ppm;INAA;1,97;ppm;INAA;;;;;;;;;;;;;;;;21;ppm;Unknown;88;ppm;Unknown;96;ppm;Unknown;;;;;;;;;;;;;;;;;;;;;;;;;;;;;;;;;;0,31;wt%;TITR;0,59;wt%;TITR;0,31;wt%;TITR;0,59;wt%;TITR;;;
GROSCAMP-W-223033;;GROSSMAN-CAMP;GROSSMAN, 1991;39,1772;-77,3275;0,0001;;;CONTINENTAL_RIFT;;;;"AAS; COL; ICP; INAA; TITR; Unknown";WHOLE ROCK;IGNEOUS:VOLCANIC:MAFIC;DIABASE;;52,5;wt%;COL;1,1;wt%;COL;14;wt%;COL;;;;2,1;wt%;Unknown;;;;8,4;wt%;TITR;;;;;;;0,18;wt%;AAS;8,1;wt%;AAS;10,9;wt%;Unknown;;;;1,48;wt%;Unknown;0,62;wt%;AAS;0,15;wt%;COL;;;;;;;;;;0,35;wt%;TITR;0,75;wt%;TITR;;;;;;;;;;110;ppm;Unknown;47;ppm;Unknown;117;ppm;Unknown;;;;83;ppm;Unknown;;;;;;;;;;;;;;;;;;;;;;;;;;;;;;;;;;;;;;;;;;;;;;;;;;;;;;;;;;;;;;;;;;;;;;;;;;;;;;;;;;;;;;;;;;;;;;;;;;;;;;;;;;;;;;;;;;;;;;;;;;;;;;;;;;10,1;ppm;INAA;21,2;ppm;INAA;;;;;;;3,2;ppm;INAA;10;ppm;INAA;;;;0,6;ppm;INAA;;;;;;;;;;;;;2,07;ppm;INAA;0,31;ppm;INAA;0,04;ppm;TITR;;;;;;;;;;;;;;;;;;;;;;;;;;;;;;;;;;;;;152;ppm;Unknown;;;;;;;;;;;;;47;ppm;Unknown;360;ppm;Unknown;1,1;ppm;INAA;117;ppm;Unknown;;;;;;;2,41;ppm;INAA;;;;;;;;;;;;;;;;;;;;;;7,2;ppm;ICP;110;ppm;Unknown;;;;;;;;;;11;ppm;Unknown;13;ppm;Unknown;20;ppm;Unknown;;;;;;;;;;;;;;;;36;ppm;INAA;;;;168;ppm;Unknown;0,48;ppm;INAA;1,97;ppm;INAA;;;;;;;0,62;ppm;INAA;;;;;;;25;ppm;Unknown;83;ppm;Unknown;97;ppm;Unknown;;;;;;;;;;;;;;;;;;;;;;;;;;;;;;;;;;0,35;wt%;TITR;0,75;wt%;TITR;0,35;wt%;TITR;0,75;wt%;TITR;;;
GROSCAMP-W-223034;;GROSSMAN-CAMP;GROSSMAN, 1991;39,1772;-77,3275;0,0001;;;CONTINENTAL_RIFT;;;;"AAS; COL; ICP; INAA; TITR; Unknown";WHOLE ROCK;IGNEOUS:VOLCANIC:MAFIC;DIABASE;;51,9;wt%;COL;1,1;wt%;COL;13,7;wt%;COL;;;;2,2;wt%;Unknown;;;;8,2;wt%;TITR;;;;;;;0,21;wt%;AAS;8;wt%;AAS;10,5;wt%;Unknown;;;;1,32;wt%;Unknown;0,54;wt%;AAS;0,15;wt%;COL;;;;;;;;;;0,42;wt%;TITR;0,88;wt%;TITR;;;;;;;;;;95;ppm;Unknown;47;ppm;Unknown;115;ppm;Unknown;;;;81;ppm;Unknown;;;;;;;;;;;;;;;;;;;;;;;;;;;;;;;;;;;;;;;;;;;;;;;;;;;;;;;;;;;;;;;;;;;;;;;;;;;;;;;;;;;;;;;;;;;;;;;;;;;;;;;;;;;;;;;;;;;;;;;;;;;;;;;;;;10;ppm;INAA;21,5;ppm;INAA;;;;17;ppm;INAA;3,3;ppm;INAA;10;ppm;INAA;;;;0,57;ppm;INAA;;;;;;;;;;;;;2,07;ppm;INAA;0,31;ppm;INAA;0,03;ppm;TITR;;;;;;;;;;;;;;;;;;;;;;;;;;;;;;;;;;;;;169;ppm;Unknown;;;;;;;;;;;;;47;ppm;Unknown;390;ppm;Unknown;1,1;ppm;INAA;115;ppm;Unknown;;;;;;;2,34;ppm;INAA;;;;;;;;;;;;;;;;;;;;;;5,7;ppm;ICP;95;ppm;Unknown;;;;;;;;;;11;ppm;Unknown;13;ppm;Unknown;23;ppm;Unknown;;;;;;;;;;;;;;;;36;ppm;INAA;;;;180;ppm;Unknown;0,47;ppm;INAA;2;ppm;INAA;;;;;;;;;;;;;;;;24;ppm;Unknown;81;ppm;Unknown;102;ppm;Unknown;;;;;;;;;;;;;;;;;;;;;;;;;;;;;;;;;;0,42;wt%;TITR;0,88;wt%;TITR;0,42;wt%;TITR;0,88;wt%;TITR;;;
GROSCAMP-W-223035;;GROSSMAN-CAMP;GROSSMAN, 1991;39,1772;-77,3275;0,0001;;;CONTINENTAL_RIFT;;;;"AAS; COL; ICP; INAA; TITR; Unknown";WHOLE ROCK;IGNEOUS:VOLCANIC:MAFIC;DIABASE;;51,5;wt%;COL;1,1;wt%;COL;13,8;wt%;COL;;;;2,6;wt%;Unknown;;;;7;wt%;TITR;;;;;;;0,23;wt%;AAS;7,5;wt%;AAS;10,7;wt%;Unknown;;;;1,75;wt%;Unknown;0,86;wt%;AAS;0,17;wt%;COL;;;;;;;;;;0,36;wt%;TITR;1;wt%;TITR;;;;;;;;;;95;ppm;Unknown;42;ppm;Unknown;144;ppm;Unknown;;;;144;ppm;Unknown;;;;;;;;;;;;;;;;;;;;;;;;;;;;;;;;;;;;;;;;;;;;;;;;;;;;;;;;;;;;;;;;;;;;;;;;;;;;;;;;;;;;;;;;;;;;;;;;;;;;;;;;;;;;;;;;;;;;;;;;;;;;;;;;;;11,8;ppm;INAA;26,8;ppm;INAA;;;;16;ppm;INAA;3,7;ppm;INAA;1,12;ppm;INAA;;;;0,61;ppm;INAA;;;;;;;;;;;;;2,31;ppm;INAA;0,33;ppm;INAA;0,13;ppm;TITR;;;;;;;;;;;;;;;;;;;;;;;;;;;;;;;;;;;;;227;ppm;Unknown;;;;;;;;;;;;;42;ppm;Unknown;271;ppm;Unknown;0,94;ppm;INAA;144;ppm;Unknown;;;;;;;2,58;ppm;INAA;;;;;;;;;;;;;;;;;;;;;;6,6;ppm;ICP;95;ppm;Unknown;;;;;;;;;;10;ppm;Unknown;13;ppm;Unknown;32;ppm;Unknown;;;;;;;;;;;;;;;;36;ppm;INAA;;;;237;ppm;Unknown;0,54;ppm;INAA;2,2;ppm;INAA;;;;;;;0,59;ppm;INAA;;;;;;;25;ppm;Unknown;144;ppm;Unknown;111;ppm;Unknown;;;;;;;;;;;;;;;;;;;;;;;;;;;;;;;;;;0,36;wt%;TITR;1;wt%;TITR;0,36;wt%;TITR;1;wt%;TITR;;;