SAMPLE ID;IGSN;EXPEDITION ID;REFERENCES;LATITUDE;LONGITUDE;LOC PREC;MIN ELEVATION;MAX ELEVATION;TECTONIC SETTING;MIN AGE;AGE;MAX AGE;METHOD;ANALYZED MATERIAL;ROCK TYPE;ROCK NAME;MINERAL;SIO2;SIO2 Units;SIO2 Method;TIO2;TIO2 Units;TIO2 Method;AL2O3;AL2O3 Units;AL2O3 Method;CR2O3;CR2O3 Units;CR2O3 Method;FE2O3;FE2O3 Units;FE2O3 Method;FE2O3T;FE2O3T Units;FE2O3T Method;FEO;FEO Units;FEO Method;FEOT;FEOT Units;FEOT Method;NIO;NIO Units;NIO Method;MNO;MNO Units;MNO Method;MGO;MGO Units;MGO Method;CAO;CAO Units;CAO Method;SRO;SRO Units;SRO Method;NA2O;NA2O Units;NA2O Method;K2O;K2O Units;K2O Method;P2O5;P2O5 Units;P2O5 Method;BAO;BAO Units;BAO Method;LOI;LOI Units;LOI Method;H2O;H2O Units;H2O Method;H2O_M;H2O_M Units;H2O_M Method;H2O_P;H2O_P Units;H2O_P Method;SO3;SO3 Units;SO3 Method;COO;COO Units;COO Method;MN;MN Units;MN Method;NI;NI Units;NI Method;CO;CO Units;CO Method;CU;CU Units;CU Method;CD;CD Units;CD Method;ZN;ZN Units;ZN Method;AS;AS Units;AS Method;AG;AG Units;AG Method;S;S Units;S Method;ZRO2;ZRO2 Units;ZRO2 Method;AL;AL Units;AL Method;CA;CA Units;CA Method;SR87_SR86;SR87_SR86 Units;SR87_SR86 Method;SR87_SR86_INI;SR87_SR86_INI Units;SR87_SR86_INI Method;RB87_SR86;RB87_SR86 Units;RB87_SR86 Method;ND143_ND144;ND143_ND144 Units;ND143_ND144 Method;ND143_ND144_INI;ND143_ND144_INI Units;ND143_ND144_INI Method;SM147_ND144;SM147_ND144 Units;SM147_ND144 Method;E_ND;E_ND Units;E_ND Method;E_ND_INI;E_ND_INI Units;E_ND_INI Method;PB204_PB206;PB204_PB206 Units;PB204_PB206 Method;PB206_PB204;PB206_PB204 Units;PB206_PB204 Method;PB206_PB204_INI;PB206_PB204_INI Units;PB206_PB204_INI Method;PB207_PB204;PB207_PB204 Units;PB207_PB204 Method;PB207_PB204_INI;PB207_PB204_INI Units;PB207_PB204_INI Method;PB207_PB206;PB207_PB206 Units;PB207_PB206 Method;PB208_PB204;PB208_PB204 Units;PB208_PB204 Method;PB208_PB204_INI;PB208_PB204_INI Units;PB208_PB204_INI Method;PB208_PB206;PB208_PB206 Units;PB208_PB206 Method;HF176_HF177;HF176_HF177 Units;HF176_HF177 Method;RE187_OS188;RE187_OS188 Units;RE187_OS188 Method;OS187_OS188;OS187_OS188 Units;OS187_OS188 Method;OS187_OS188_INI;OS187_OS188_INI Units;OS187_OS188_INI Method;G_OS;G_OS Units;G_OS Method;G_OS_INI;G_OS_INI Units;G_OS_INI Method;ND143_ND144_INI;ND143_ND144_INI Units;ND143_ND144_INI Method;PB206_PB204_INI;PB206_PB204_INI Units;PB206_PB204_INI Method;PB207_PB204_INI;PB207_PB204_INI Units;PB207_PB204_INI Method;PB208_PB204_INI;PB208_PB204_INI Units;PB208_PB204_INI Method;SR87_SR86_INI;SR87_SR86_INI Units;SR87_SR86_INI Method;HE;HE Units;HE Method;HE3;HE3 Units;HE3 Method;HE3_HE4_R_RA;HE3_HE4_R_RA Units;HE3_HE4_R_RA Method;AR36;AR36 Units;AR36 Method;AR40;AR40 Units;AR40 Method;AR40_AR36;AR40_AR36 Units;AR40_AR36 Method;NE20;NE20 Units;NE20 Method;NE20_NE22;NE20_NE22 Units;NE20_NE22 Method;NE21_NE22;NE21_NE22 Units;NE21_NE22 Method;LA;LA Units;LA Method;CE;CE Units;CE Method;PR;PR Units;PR Method;ND;ND Units;ND Method;SM;SM Units;SM Method;EU;EU Units;EU Method;GD;GD Units;GD Method;TB;TB Units;TB Method;DY;DY Units;DY Method;HO;HO Units;HO Method;ER;ER Units;ER Method;TM;TM Units;TM Method;YB;YB Units;YB Method;LU;LU Units;LU Method;CO2;CO2 Units;CO2 Method;F;F Units;F Method;CL;CL Units;CL Method;U238_PB204;U238_PB204 Units;U238_PB204 Method;TH230_TH232;TH230_TH232 Units;TH230_TH232 Method;RA226_ACTIVITY;RA226_ACTIVITY Units;RA226_ACTIVITY Method;PB210_RA226;PB210_RA226 Units;PB210_RA226 Method;PB210_ACTIVITY;PB210_ACTIVITY Units;PB210_ACTIVITY Method;AG;AG Units;AG Method;AL;AL Units;AL Method;AS;AS Units;AS Method;AU;AU Units;AU Method;B;B Units;B Method;BA;BA Units;BA Method;BE;BE Units;BE Method;BI;BI Units;BI Method;CA;CA Units;CA Method;CD;CD Units;CD Method;CO;CO Units;CO Method;CR;CR Units;CR Method;CS;CS Units;CS Method;CU;CU Units;CU Method;GA;GA Units;GA Method;GER;GER Units;GER Method;HF;HF Units;HF Method;INDIUM;INDIUM Units;INDIUM Method;IR;IR Units;IR Method;K;K Units;K Method;LI;LI Units;LI Method;MN;MN Units;MN Method;MO;MO Units;MO Method;NA;NA Units;NA Method;NB;NB Units;NB Method;NI;NI Units;NI Method;OS;OS Units;OS Method;P;P Units;P Method;PB;PB Units;PB Method;PD;PD Units;PD Method;PT;PT Units;PT Method;RB;RB Units;RB Method;RE;RE Units;RE Method;RH;RH Units;RH Method;RU;RU Units;RU Method;S;S Units;S Method;SB;SB Units;SB Method;SC;SC Units;SC Method;SN;SN Units;SN Method;SR;SR Units;SR Method;TA;TA Units;TA Method;TH;TH Units;TH Method;TI;TI Units;TI Method;TL;TL Units;TL Method;U;U Units;U Method;V;V Units;V Method;W;W Units;W Method;Y;Y Units;Y Method;ZN;ZN Units;ZN Method;ZR;ZR Units;ZR Method;DELTA_O18;DELTA_O18 Units;DELTA_O18 Method;DELTA_C13;DELTA_C13 Units;DELTA_C13 Method;DELTA_MO98;DELTA_MO98 Units;DELTA_MO98 Method;DELTA_ZN66;DELTA_ZN66 Units;DELTA_ZN66 Method;DELTA_ZN68;DELTA_ZN68 Units;DELTA_ZN68 Method;OS188;OS188 Units;OS188 Method;FE3P_FET;FE3P_FET Units;FE3P_FET Method;TI;TI Units;TI Method;AS;AS Units;AS Method;AS;AS Units;AS Method;GER;GER Units;GER Method;H2O_M;H2O_M Units;H2O_M Method;H2O_P;H2O_P Units;H2O_P Method;H2O_M;H2O_M Units;H2O_M Method;H2O_P;H2O_P Units;H2O_P Method;INDIUM;INDIUM Units;INDIUM Method
GROSCAMP-W-243819;;GROSSMAN-CAMP;GROSSMAN, 1991;40,23;-75,99;0,001;;;CONTINENTAL_RIFT;;;;"AAS; COL; ES; ICP; INAA; TITR; Unknown";WHOLE ROCK;IGNEOUS:VOLCANIC:FELSIC;GRANOPHYRE;;58,4;wt%;COL;1,91;wt%;COL;11,7;wt%;COL;;;;4,66;wt%;Unknown;;;;8,8;wt%;TITR;;;;;;;0,19;wt%;AAS;1,3;wt%;AAS;4,95;wt%;Unknown;;;;3,09;wt%;Unknown;2,35;wt%;AAS;0,55;wt%;COL;;;;;;;;;;0,41;wt%;TITR;1,1;wt%;TITR;;;;;;;;;;5;ppm;Unknown;28,1;ppm;Unknown;240;ppm;Unknown;;;;205;ppm;Unknown;6,6;ppm;INAA;;;;0,07;ppm;INAA;;;;;;;;;;;;;;;;;;;;;;;;;;;;;;;;;;;;;;;;;;;;;;;;;;;;;;;;;;;;;;;;;;;;;;;;;;;;;;;;;;;;;;;;;;;;;;;;;;;;;;;;;;;;;;;;;;;;;;;;;39;ppm;INAA;80;ppm;INAA;;;;38;ppm;INAA;11,2;ppm;INAA;2,84;ppm;INAA;;;;2,02;ppm;INAA;;;;;;;;;;;;;6,4;ppm;INAA;0,9;ppm;INAA;0,01;ppm;TITR;0,08;ppm;INAA;0,31;ppm;INAA;;;;;;;;;;;;;;;;;;;;;;6,6;ppm;INAA;;;;21,6;ppm;ES;530;ppm;Unknown;;;;;;;;;;;;;28,1;ppm;Unknown;5,3;ppm;Unknown;2,1;ppm;INAA;240;ppm;Unknown;24;ppm;ICP;;;;8,8;ppm;INAA;;;;;;;;;;;;;;;;;;;;;;30;ppm;ICP;5;ppm;Unknown;;;;;;;;;;1;ppm;Unknown;;;;73;ppm;Unknown;;;;;;;;;;0,07;ppm;INAA;0,75;ppm;INAA;25,2;ppm;INAA;;;;177;ppm;Unknown;2;ppm;INAA;8,2;ppm;INAA;;;;;;;1,6;ppm;INAA;;;;;;;65;ppm;Unknown;205;ppm;Unknown;330;ppm;Unknown;;;;;;;;;;;;;;;;;;;;;;;;;6,6;ppm;INAA;6,6;ppm;INAA;;;;0,41;wt%;TITR;1,1;wt%;TITR;0,41;wt%;TITR;1,1;wt%;TITR;;;
GROSCAMP-W-243820;;GROSSMAN-CAMP;GROSSMAN, 1991;35,8753;-78,9389;0,001;;;CONTINENTAL_RIFT;;;;"AAS; COL; ES; ICP; INAA; TITR; Unknown";WHOLE ROCK;IGNEOUS:VOLCANIC:MAFIC;DIABASE;;52,4;wt%;COL;1,2;wt%;COL;14;wt%;COL;;;;3,1;wt%;Unknown;;;;7,9;wt%;TITR;;;;;;;0,17;wt%;AAS;7,37;wt%;AAS;10,8;wt%;Unknown;;;;2,06;wt%;Unknown;0,58;wt%;AAS;0,15;wt%;COL;;;;;;;;;;0,38;wt%;TITR;0,62;wt%;TITR;;;;;;;;;;74;ppm;Unknown;47;ppm;Unknown;94;ppm;Unknown;;;;61;ppm;Unknown;1,6;ppm;INAA;;;;0,04;ppm;INAA;;;;;;;;;;;;;;;;;;;;;;;;;;;;;;;;;;;;;;;;;;;;;;;;;;;;;;;;;;;;;;;;;;;;;;;;;;;;;;;;;;;;;;;;;;;;;;;;;;;;;;;;;;;;;;;;;;;;;;;;;11,4;ppm;INAA;23;ppm;INAA;;;;14;ppm;INAA;3,6;ppm;INAA;1,1;ppm;INAA;;;;0,72;ppm;INAA;;;;;;;;;;;;;2,5;ppm;INAA;0,35;ppm;INAA;0,02;ppm;TITR;0,03;ppm;INAA;;;;;;;;;;;;;;;;;;;;;;;;;1,6;ppm;INAA;5,4;ppm;INAA;6,3;ppm;ES;166;ppm;Unknown;;;;;;;;;;;;;47;ppm;Unknown;242;ppm;Unknown;0,56;ppm;INAA;94;ppm;Unknown;19;ppm;ICP;;;;2,6;ppm;INAA;;;;;;;;;;;;;;;;;;;;;;8,5;ppm;ICP;74;ppm;Unknown;;;;;;;;;;8;ppm;Unknown;14;ppm;Unknown;28;ppm;Unknown;;;;;;;;;;0,04;ppm;INAA;0,1;ppm;INAA;37;ppm;INAA;;;;185;ppm;Unknown;0,54;ppm;INAA;2,3;ppm;INAA;;;;;;;0,51;ppm;INAA;;;;;;;22;ppm;Unknown;61;ppm;Unknown;107;ppm;Unknown;;;;;;;;;;;;;;;;;;;;;;;;;1,6;ppm;INAA;1,6;ppm;INAA;;;;0,38;wt%;TITR;0,62;wt%;TITR;0,38;wt%;TITR;0,62;wt%;TITR;;;
GROSCAMP-W-243821;;GROSSMAN-CAMP;GROSSMAN, 1991;35,8806;-78,9361;0,001;;;CONTINENTAL_RIFT;;;;"AAS; COL; ES; ICP; INAA; TITR; Unknown";WHOLE ROCK;IGNEOUS:VOLCANIC:MAFIC;DIABASE;;52;wt%;COL;1,15;wt%;COL;14,1;wt%;COL;;;;3,08;wt%;Unknown;;;;7,9;wt%;TITR;;;;;;;0,17;wt%;AAS;7,56;wt%;AAS;10,8;wt%;Unknown;;;;1,95;wt%;Unknown;0,47;wt%;AAS;0,15;wt%;COL;;;;;;;;;;0,47;wt%;TITR;0,63;wt%;TITR;;;;;;;;;;92;ppm;Unknown;49;ppm;Unknown;107;ppm;Unknown;;;;76;ppm;Unknown;1,3;ppm;INAA;;;;0,05;ppm;INAA;;;;;;;;;;;;;;;;;;;;;;;;;;;;;;;;;;;;;;;;;;;;;;;;;;;;;;;;;;;;;;;;;;;;;;;;;;;;;;;;;;;;;;;;;;;;;;;;;;;;;;;;;;;;;;;;;;;;;;;;;10,5;ppm;INAA;22;ppm;INAA;;;;12;ppm;INAA;3,4;ppm;INAA;1,1;ppm;INAA;;;;0,64;ppm;INAA;;;;;;;;;;;;;2,4;ppm;INAA;0,34;ppm;INAA;0,02;ppm;TITR;0,03;ppm;INAA;;;;;;;;;;;;;;;;;;;;;;;;;1,3;ppm;INAA;;;;6,5;ppm;ES;217;ppm;Unknown;;;;;;;;;;;;;49;ppm;Unknown;279;ppm;Unknown;0,3;ppm;INAA;107;ppm;Unknown;19;ppm;ICP;;;;2,5;ppm;INAA;;;;;;;;;;;;;;;;;;;;;;8,3;ppm;ICP;92;ppm;Unknown;;;;;;;;;;8,5;ppm;Unknown;15;ppm;Unknown;17;ppm;Unknown;;;;;;;;;;0,05;ppm;INAA;0,18;ppm;INAA;37;ppm;INAA;;;;177;ppm;Unknown;0,5;ppm;INAA;2,4;ppm;INAA;;;;;;;0,35;ppm;INAA;;;;;;;20;ppm;Unknown;76;ppm;Unknown;99;ppm;Unknown;;;;;;;;;;;;;;;;;;;;;;;;;1,3;ppm;INAA;1,3;ppm;INAA;;;;0,47;wt%;TITR;0,63;wt%;TITR;0,47;wt%;TITR;0,63;wt%;TITR;;;
GROSCAMP-W-243822;;GROSSMAN-CAMP;GROSSMAN, 1991;38,5625;-77,8292;0,001;;;CONTINENTAL_RIFT;;;;"AAS; COL; ES; ICP; INAA; TITR; Unknown";WHOLE ROCK;IGNEOUS:VOLCANIC:MAFIC;DIABASE;;50,1;wt%;COL;0,83;wt%;COL;14,7;wt%;COL;;;;3,27;wt%;Unknown;;;;8,1;wt%;TITR;;;;;;;0,2;wt%;AAS;7,09;wt%;AAS;8,36;wt%;Unknown;;;;3,67;wt%;Unknown;1,1;wt%;AAS;0,12;wt%;COL;;;;;;;;;;0,4;wt%;TITR;2,3;wt%;TITR;;;;;;;;;;65;ppm;Unknown;48;ppm;Unknown;51;ppm;Unknown;;;;70;ppm;Unknown;1,1;ppm;INAA;;;;0,11;ppm;INAA;;;;;;;;;;;;;;;;;;;;;;;;;;;;;;;;;;;;;;;;;;;;;;;;;;;;;;;;;;;;;;;;;;;;;;;;;;;;;;;;;;;;;;;;;;;;;;;;;;;;;;;;;;;;;;;;;;;;;;;;;7;ppm;INAA;14;ppm;INAA;;;;8,7;ppm;INAA;2,45;ppm;INAA;0,81;ppm;INAA;;;;0,59;ppm;INAA;;;;;;;;;;;;;2,4;ppm;INAA;0,37;ppm;INAA;0,06;ppm;TITR;0,02;ppm;INAA;0,05;ppm;INAA;;;;;;;;;;;;;;;;;;;;;;1,1;ppm;INAA;;;;18,1;ppm;ES;111;ppm;Unknown;;;;;;;;;;;;;48;ppm;Unknown;180;ppm;Unknown;1,1;ppm;INAA;51;ppm;Unknown;18;ppm;ICP;;;;1,8;ppm;INAA;;;;;;;;;;;;;;;;;;;;;;4,7;ppm;ICP;65;ppm;Unknown;;;;;;;;;;;;;3,8;ppm;Unknown;64;ppm;Unknown;;;;;;;;;;0,11;ppm;INAA;;;;43;ppm;INAA;;;;380;ppm;Unknown;0,3;ppm;INAA;1,6;ppm;INAA;;;;;;;0,5;ppm;INAA;;;;;;;22;ppm;Unknown;70;ppm;Unknown;69;ppm;Unknown;;;;;;;;;;;;;;;;;;;;;;;;;1,1;ppm;INAA;1,1;ppm;INAA;;;;0,4;wt%;TITR;2,3;wt%;TITR;0,4;wt%;TITR;2,3;wt%;TITR;;;
GROSCAMP-W-243823;;GROSSMAN-CAMP;GROSSMAN, 1991;38,5625;-77,8292;0,001;;;CONTINENTAL_RIFT;;;;"AAS; COL; ICP; INAA; TITR; Unknown";WHOLE ROCK;IGNEOUS:VOLCANIC:MAFIC;DIABASE;;50;wt%;COL;0,81;wt%;COL;14,3;wt%;COL;;;;3,15;wt%;Unknown;;;;7,9;wt%;TITR;;;;;;;0,19;wt%;AAS;7,33;wt%;AAS;8,41;wt%;Unknown;;;;4;wt%;Unknown;0,65;wt%;AAS;0,11;wt%;COL;;;;;;;;;;0,33;wt%;TITR;2,7;wt%;TITR;;;;;;;;;;67;ppm;Unknown;48;ppm;Unknown;45;ppm;Unknown;;;;48;ppm;Unknown;2,4;ppm;INAA;;;;0,12;ppm;INAA;;;;;;;;;;;;;;;;;;;;;;;;;;;;;;;;;;;;;;;;;;;;;;;;;;;;;;;;;;;;;;;;;;;;;;;;;;;;;;;;;;;;;;;;;;;;;;;;;;;;;;;;;;;;;;;;;;;;;;;;;7;ppm;INAA;14;ppm;INAA;;;;6,4;ppm;INAA;2,27;ppm;INAA;0,82;ppm;INAA;;;;0,49;ppm;INAA;;;;;;;;;;;;;2,4;ppm;INAA;0,35;ppm;INAA;0,04;ppm;TITR;0,01;ppm;INAA;0,08;ppm;INAA;;;;;;;;;;;;;;;;;;;;;;2,4;ppm;INAA;;;;;;;44;ppm;Unknown;;;;;;;;;;;;;48;ppm;Unknown;180;ppm;Unknown;0,32;ppm;INAA;45;ppm;Unknown;19;ppm;ICP;;;;1,8;ppm;INAA;;;;;;;;;;;;;;;;;;;;;;4,1;ppm;ICP;67;ppm;Unknown;;;;;;;;;;2;ppm;Unknown;6,1;ppm;Unknown;23;ppm;Unknown;;;;;;;;;;0,12;ppm;INAA;0,17;ppm;INAA;42;ppm;INAA;;;;149;ppm;Unknown;0,28;ppm;INAA;1,4;ppm;INAA;;;;;;;;;;;;;;;;21;ppm;Unknown;48;ppm;Unknown;63;ppm;Unknown;;;;;;;;;;;;;;;;;;;;;;;;;2,4;ppm;INAA;2,4;ppm;INAA;;;;0,33;wt%;TITR;2,7;wt%;TITR;0,33;wt%;TITR;2,7;wt%;TITR;;;
GROSCAMP-W-243824;;GROSSMAN-CAMP;GROSSMAN, 1991;38,5583;-77,8375;0,001;;;CONTINENTAL_RIFT;;;;"AAS; COL; ICP; INAA; TITR; Unknown";WHOLE ROCK;IGNEOUS:VOLCANIC:MAFIC;DIABASE;;49,8;wt%;COL;0,7;wt%;COL;14,9;wt%;COL;;;;2,59;wt%;Unknown;;;;8;wt%;TITR;;;;;;;0,14;wt%;AAS;8,05;wt%;AAS;10,3;wt%;Unknown;;;;2,06;wt%;Unknown;1,42;wt%;AAS;0,09;wt%;COL;;;;;;;;;;0,35;wt%;TITR;1,4;wt%;TITR;;;;;;;;;;70;ppm;Unknown;47;ppm;Unknown;61;ppm;Unknown;;;;34;ppm;Unknown;4,7;ppm;INAA;;;;0,05;ppm;INAA;;;;;;;;;;;;;;;;;;;;;;;;;;;;;;;;;;;;;;;;;;;;;;;;;;;;;;;;;;;;;;;;;;;;;;;;;;;;;;;;;;;;;;;;;;;;;;;;;;;;;;;;;;;;;;;;;;;;;;;;;5;ppm;INAA;11;ppm;INAA;;;;7,8;ppm;INAA;1,94;ppm;INAA;0,71;ppm;INAA;;;;0,48;ppm;INAA;;;;;;;;;;;;;2,1;ppm;INAA;0,33;ppm;INAA;0,03;ppm;TITR;0,02;ppm;INAA;0,16;ppm;INAA;;;;;;;;;;;;;;;;;;;;;;4,7;ppm;INAA;;;;;;;188;ppm;Unknown;;;;;;;;;;;;;47;ppm;Unknown;252;ppm;Unknown;1,4;ppm;INAA;61;ppm;Unknown;18;ppm;ICP;;;;1,2;ppm;INAA;;;;;;;;;;;;;;;;;;;;;;3;ppm;ICP;70;ppm;Unknown;;;;;;;;;;0,7;ppm;Unknown;2,9;ppm;Unknown;71;ppm;Unknown;;;;;;;;;;0,05;ppm;INAA;0,35;ppm;INAA;41;ppm;INAA;;;;207;ppm;Unknown;0,19;ppm;INAA;0,98;ppm;INAA;;;;;;;0,31;ppm;INAA;;;;;;;19;ppm;Unknown;34;ppm;Unknown;58;ppm;Unknown;;;;;;;;;;;;;;;;;;;;;;;;;4,7;ppm;INAA;4,7;ppm;INAA;;;;0,35;wt%;TITR;1,4;wt%;TITR;0,35;wt%;TITR;1,4;wt%;TITR;;;
GROSCAMP-W-243825;;GROSSMAN-CAMP;GROSSMAN, 1991;38,5583;-77,8375;0,001;;;CONTINENTAL_RIFT;;;;"AAS; COL; ES; ICP; INAA; TITR; Unknown";WHOLE ROCK;IGNEOUS:VOLCANIC:MAFIC;DIABASE;;51,3;wt%;COL;0,79;wt%;COL;15;wt%;COL;;;;3,02;wt%;Unknown;;;;8;wt%;TITR;;;;;;;0,19;wt%;AAS;7;wt%;AAS;10,4;wt%;Unknown;;;;2,49;wt%;Unknown;1,04;wt%;AAS;0,09;wt%;COL;;;;;;;;;;0,32;wt%;TITR;0,79;wt%;TITR;;;;;;;;;;44;ppm;Unknown;46;ppm;Unknown;76;ppm;Unknown;;;;64;ppm;Unknown;;;;;;;0,07;ppm;INAA;;;;;;;;;;;;;;;;;;;;;;;;;;;;;;;;;;;;;;;;;;;;;;;;;;;;;;;;;;;;;;;;;;;;;;;;;;;;;;;;;;;;;;;;;;;;;;;;;;;;;;;;;;;;;;;;;;;;;;;;;6;ppm;INAA;12;ppm;INAA;;;;6,7;ppm;INAA;2,1;ppm;INAA;0,77;ppm;INAA;;;;0,51;ppm;INAA;;;;;;;;;;;;;2,2;ppm;INAA;0,34;ppm;INAA;0,03;ppm;TITR;0,02;ppm;INAA;0,01;ppm;INAA;;;;;;;;;;;;;;;;;;;;;;;;;;;;10,4;ppm;ES;137;ppm;Unknown;;;;;;;;;;;;;46;ppm;Unknown;190;ppm;Unknown;0,53;ppm;INAA;76;ppm;Unknown;19;ppm;ICP;;;;1,4;ppm;INAA;;;;;;;;;;;;;;;;;;;;;;3,7;ppm;ICP;44;ppm;Unknown;;;;;;;;;;;;;3,9;ppm;Unknown;55;ppm;Unknown;;;;;;;;;;0,07;ppm;INAA;;;;44;ppm;INAA;;;;267;ppm;Unknown;0,26;ppm;INAA;1,2;ppm;INAA;;;;;;;0,39;ppm;INAA;;;;;;;19;ppm;Unknown;64;ppm;Unknown;68;ppm;Unknown;;;;;;;;;;;;;;;;;;;;;;;;;;;;;;;;;;0,32;wt%;TITR;0,79;wt%;TITR;0,32;wt%;TITR;0,79;wt%;TITR;;;
GROSCAMP-W-243826;;GROSSMAN-CAMP;GROSSMAN, 1991;38,9792;-77,65;0,001;;;CONTINENTAL_RIFT;;;;"AAS; COL; ES; ICP; INAA; TITR; Unknown";WHOLE ROCK;IGNEOUS:VOLCANIC:MAFIC;DIABASE;;47,1;wt%;COL;0,26;wt%;COL;14,4;wt%;COL;;;;2,36;wt%;Unknown;;;;8,2;wt%;TITR;;;;;;;0,17;wt%;AAS;14,1;wt%;AAS;11,2;wt%;Unknown;;;;1,48;wt%;Unknown;0,28;wt%;AAS;0,06;wt%;COL;;;;;;;;;;0,14;wt%;TITR;0,96;wt%;TITR;;;;;;;;;;510;ppm;Unknown;68;ppm;Unknown;67;ppm;Unknown;;;;69;ppm;Unknown;;;;;;;0,07;ppm;INAA;;;;;;;;;;;;;;;;;;;;;;;;;;;;;;;;;;;;;;;;;;;;;;;;;;;;;;;;;;;;;;;;;;;;;;;;;;;;;;;;;;;;;;;;;;;;;;;;;;;;;;;;;;;;;;;;;;;;;;;;;3,9;ppm;INAA;11;ppm;INAA;;;;6,4;ppm;INAA;1,04;ppm;INAA;0,27;ppm;INAA;;;;0,23;ppm;INAA;;;;;;;;;;;;;1,8;ppm;INAA;0,27;ppm;INAA;0,29;ppm;TITR;0,01;ppm;INAA;0,02;ppm;INAA;;;;;;;;;;;;;;;;;;;;;;;;;;;;3;ppm;ES;76;ppm;Unknown;;;;;;;;;;;;;68;ppm;Unknown;1090;ppm;Unknown;;;;67;ppm;Unknown;13;ppm;ICP;;;;0,76;ppm;INAA;;;;;;;;;;;;;;;;;;;;;;1,9;ppm;ICP;510;ppm;Unknown;;;;;;;;;;14;ppm;Unknown;19;ppm;Unknown;3;ppm;Unknown;;;;;;;;;;0,07;ppm;INAA;;;;38;ppm;INAA;;;;55;ppm;Unknown;0,12;ppm;INAA;0,83;ppm;INAA;;;;;;;;;;;;;;;;11;ppm;Unknown;69;ppm;Unknown;39;ppm;Unknown;;;;;;;;;;;;;;;;;;;;;;;;;;;;;;;;;;0,14;wt%;TITR;0,96;wt%;TITR;0,14;wt%;TITR;0,96;wt%;TITR;;;
GROSCAMP-W-243827;;GROSSMAN-CAMP;GROSSMAN, 1991;38,975;-77,65;0,001;;;CONTINENTAL_RIFT;;;;"AAS; COL; ES; ICP; INAA; TITR; Unknown";WHOLE ROCK;IGNEOUS:VOLCANIC:MAFIC;DIABASE;;47;wt%;COL;0,26;wt%;COL;13,7;wt%;COL;;;;2,14;wt%;Unknown;;;;8,6;wt%;TITR;;;;;;;0,17;wt%;AAS;15,5;wt%;AAS;10,7;wt%;Unknown;;;;1,43;wt%;Unknown;0,27;wt%;AAS;0,06;wt%;COL;;;;;;;;;;0,12;wt%;TITR;0,51;wt%;TITR;;;;;;;;;;580;ppm;Unknown;73;ppm;Unknown;66;ppm;Unknown;;;;70;ppm;Unknown;;;;;;;0,04;ppm;INAA;;;;;;;;;;;;;;;;;;;;;;;;;;;;;;;;;;;;;;;;;;;;;;;;;;;;;;;;;;;;;;;;;;;;;;;;;;;;;;;;;;;;;;;;;;;;;;;;;;;;;;;;;;;;;;;;;;;;;;;;;3,7;ppm;INAA;11;ppm;INAA;;;;4,1;ppm;INAA;0,99;ppm;INAA;0,26;ppm;INAA;;;;0,25;ppm;INAA;;;;;;;;;;;;;1,6;ppm;INAA;0,28;ppm;INAA;0,52;ppm;TITR;0,01;ppm;INAA;0,01;ppm;INAA;;;;;;;;;;;;;;;;;;;;;;;;;6,8;ppm;INAA;7,4;ppm;ES;62;ppm;Unknown;;;;;;;;;;;;;73;ppm;Unknown;1200;ppm;Unknown;;;;66;ppm;Unknown;12;ppm;ICP;;;;0,68;ppm;INAA;;;;;;;;;;;;;;;;;;;;;;1,6;ppm;ICP;580;ppm;Unknown;;;;;;;;;;12;ppm;Unknown;15;ppm;Unknown;2;ppm;Unknown;;;;;;;;;;0,04;ppm;INAA;;;;37;ppm;INAA;;;;44;ppm;Unknown;;;;0,72;ppm;INAA;;;;;;;;;;;;;;;;11;ppm;Unknown;70;ppm;Unknown;37;ppm;Unknown;;;;;;;;;;;;;;;;;;;;;;;;;;;;;;;;;;0,12;wt%;TITR;0,51;wt%;TITR;0,12;wt%;TITR;0,51;wt%;TITR;;;
GROSCAMP-W-243828;;GROSSMAN-CAMP;GROSSMAN, 1991;38,9708;-77,65;0,001;;;CONTINENTAL_RIFT;;;;"AAS; COL; ES; ICP; INAA; TITR; Unknown";WHOLE ROCK;IGNEOUS:VOLCANIC:MAFIC;DIABASE;;53,4;wt%;COL;1,01;wt%;COL;14,1;wt%;COL;;;;3,57;wt%;Unknown;;;;8,9;wt%;TITR;;;;;;;0,21;wt%;AAS;5,61;wt%;AAS;9,48;wt%;Unknown;;;;2,76;wt%;Unknown;0,67;wt%;AAS;0,18;wt%;COL;;;;;;;;;;0,73;wt%;TITR;0,37;wt%;TITR;;;;;;;;;;21;ppm;Unknown;45;ppm;Unknown;36;ppm;Unknown;;;;73;ppm;Unknown;;;;;;;0,06;ppm;INAA;;;;;;;;;;;;;;;;;;;;;;;;;;;;;;;;;;;;;;;;;;;;;;;;;;;;;;;;;;;;;;;;;;;;;;;;;;;;;;;;;;;;;;;;;;;;;;;;;;;;;;;;;;;;;;;;;;;;;;;;;10,7;ppm;INAA;23;ppm;INAA;;;;12;ppm;INAA;3,5;ppm;INAA;1,1;ppm;INAA;;;;0,71;ppm;INAA;;;;;;;;;;;;;3,1;ppm;INAA;0,45;ppm;INAA;0,01;ppm;TITR;0,03;ppm;INAA;0;ppm;INAA;;;;;;;;;;;;;;;;;;;;;;;;;;;;11,4;ppm;ES;179;ppm;Unknown;;;;;;;;;;;;;45;ppm;Unknown;20;ppm;Unknown;;;;36;ppm;Unknown;21;ppm;ICP;;;;2,3;ppm;INAA;;;;;;;;;;;;;;;;;;;;;;5,2;ppm;ICP;21;ppm;Unknown;;;;;;;;;;1,1;ppm;Unknown;2,3;ppm;Unknown;20;ppm;Unknown;;;;;;;;;;0,06;ppm;INAA;;;;44;ppm;INAA;;;;248;ppm;Unknown;0,36;ppm;INAA;2;ppm;INAA;;;;;;;0,55;ppm;INAA;;;;;;;26;ppm;Unknown;73;ppm;Unknown;98;ppm;Unknown;;;;;;;;;;;;;;;;;;;;;;;;;;;;;;;;;;0,73;wt%;TITR;0,37;wt%;TITR;0,73;wt%;TITR;0,37;wt%;TITR;;;
GROSCAMP-W-243831;;GROSSMAN-CAMP;GROSSMAN, 1991;38,65;-77,6667;0,001;;;CONTINENTAL_RIFT;;;;"AAS; COL; ES; ICP; INAA; TITR; Unknown";WHOLE ROCK;IGNEOUS:VOLCANIC:MAFIC;DIABASE;;50,8;wt%;COL;0,73;wt%;COL;15;wt%;COL;;;;2,9;wt%;Unknown;;;;8,1;wt%;TITR;;;;;;;0,2;wt%;AAS;7,98;wt%;AAS;11,3;wt%;Unknown;;;;2,04;wt%;Unknown;0,43;wt%;AAS;0,1;wt%;COL;;;;;;;;;;0,4;wt%;TITR;0,7;wt%;TITR;;;;;;;;;;65;ppm;Unknown;49;ppm;Unknown;63;ppm;Unknown;;;;62;ppm;Unknown;2,8;ppm;INAA;;;;0,07;ppm;INAA;;;;;;;;;;;;;;;;;;;;;;;;;;;;;;;;;;;;;;;;;;;;;;;;;;;;;;;;;;;;;;;;;;;;;;;;;;;;;;;;;;;;;;;;;;;;;;;;;;;;;;;;;;;;;;;;;;;;;;;;;5,7;ppm;INAA;12;ppm;INAA;;;;6,7;ppm;INAA;2,22;ppm;INAA;0,76;ppm;INAA;;;;0,58;ppm;INAA;;;;;;;;;;;;;2,4;ppm;INAA;0,35;ppm;INAA;0,39;ppm;TITR;0,01;ppm;INAA;0,02;ppm;INAA;;;;;;;;;;;;;;;;;;;;;;2,8;ppm;INAA;;;;16,4;ppm;ES;65;ppm;Unknown;;;;;;;;;;;;;49;ppm;Unknown;254;ppm;Unknown;1,6;ppm;INAA;63;ppm;Unknown;19;ppm;ICP;;;;1,6;ppm;INAA;;;;;;;;;;;;;;;;;;;;;;3,8;ppm;ICP;65;ppm;Unknown;;;;;;;;;;;;;1,6;ppm;Unknown;18;ppm;Unknown;;;;;;;;;;0,07;ppm;INAA;;;;44;ppm;INAA;;;;133;ppm;Unknown;0,23;ppm;INAA;1,2;ppm;INAA;;;;;;;0,43;ppm;INAA;;;;;;;20;ppm;Unknown;62;ppm;Unknown;65;ppm;Unknown;;;;;;;;;;;;;;;;;;;;;;;;;2,8;ppm;INAA;2,8;ppm;INAA;;;;0,4;wt%;TITR;0,7;wt%;TITR;0,4;wt%;TITR;0,7;wt%;TITR;;;