SAMPLE ID;IGSN;EXPEDITION ID;REFERENCES;LATITUDE;LONGITUDE;LOC PREC;MIN ELEVATION;MAX ELEVATION;TECTONIC SETTING;MIN AGE;AGE;MAX AGE;METHOD;ANALYZED MATERIAL;ROCK TYPE;ROCK NAME;MINERAL;SIO2;SIO2 Units;SIO2 Method;TIO2;TIO2 Units;TIO2 Method;AL2O3;AL2O3 Units;AL2O3 Method;CR2O3;CR2O3 Units;CR2O3 Method;FE2O3;FE2O3 Units;FE2O3 Method;FE2O3T;FE2O3T Units;FE2O3T Method;FEO;FEO Units;FEO Method;FEOT;FEOT Units;FEOT Method;NIO;NIO Units;NIO Method;MNO;MNO Units;MNO Method;MGO;MGO Units;MGO Method;CAO;CAO Units;CAO Method;SRO;SRO Units;SRO Method;NA2O;NA2O Units;NA2O Method;K2O;K2O Units;K2O Method;P2O5;P2O5 Units;P2O5 Method;BAO;BAO Units;BAO Method;LOI;LOI Units;LOI Method;H2O;H2O Units;H2O Method;H2O_M;H2O_M Units;H2O_M Method;H2O_P;H2O_P Units;H2O_P Method;SO3;SO3 Units;SO3 Method;COO;COO Units;COO Method;MN;MN Units;MN Method;NI;NI Units;NI Method;CO;CO Units;CO Method;CU;CU Units;CU Method;CD;CD Units;CD Method;ZN;ZN Units;ZN Method;AS;AS Units;AS Method;AG;AG Units;AG Method;S;S Units;S Method;ZRO2;ZRO2 Units;ZRO2 Method;AL;AL Units;AL Method;CA;CA Units;CA Method;SR87_SR86;SR87_SR86 Units;SR87_SR86 Method;SR87_SR86_INI;SR87_SR86_INI Units;SR87_SR86_INI Method;RB87_SR86;RB87_SR86 Units;RB87_SR86 Method;ND143_ND144;ND143_ND144 Units;ND143_ND144 Method;ND143_ND144_INI;ND143_ND144_INI Units;ND143_ND144_INI Method;SM147_ND144;SM147_ND144 Units;SM147_ND144 Method;E_ND;E_ND Units;E_ND Method;E_ND_INI;E_ND_INI Units;E_ND_INI Method;PB204_PB206;PB204_PB206 Units;PB204_PB206 Method;PB206_PB204;PB206_PB204 Units;PB206_PB204 Method;PB206_PB204_INI;PB206_PB204_INI Units;PB206_PB204_INI Method;PB207_PB204;PB207_PB204 Units;PB207_PB204 Method;PB207_PB204_INI;PB207_PB204_INI Units;PB207_PB204_INI Method;PB207_PB206;PB207_PB206 Units;PB207_PB206 Method;PB208_PB204;PB208_PB204 Units;PB208_PB204 Method;PB208_PB204_INI;PB208_PB204_INI Units;PB208_PB204_INI Method;PB208_PB206;PB208_PB206 Units;PB208_PB206 Method;HF176_HF177;HF176_HF177 Units;HF176_HF177 Method;RE187_OS188;RE187_OS188 Units;RE187_OS188 Method;OS187_OS188;OS187_OS188 Units;OS187_OS188 Method;OS187_OS188_INI;OS187_OS188_INI Units;OS187_OS188_INI Method;G_OS;G_OS Units;G_OS Method;G_OS_INI;G_OS_INI Units;G_OS_INI Method;ND143_ND144_INI;ND143_ND144_INI Units;ND143_ND144_INI Method;PB206_PB204_INI;PB206_PB204_INI Units;PB206_PB204_INI Method;PB207_PB204_INI;PB207_PB204_INI Units;PB207_PB204_INI Method;PB208_PB204_INI;PB208_PB204_INI Units;PB208_PB204_INI Method;SR87_SR86_INI;SR87_SR86_INI Units;SR87_SR86_INI Method;HE;HE Units;HE Method;HE3;HE3 Units;HE3 Method;HE3_HE4_R_RA;HE3_HE4_R_RA Units;HE3_HE4_R_RA Method;AR36;AR36 Units;AR36 Method;AR40;AR40 Units;AR40 Method;AR40_AR36;AR40_AR36 Units;AR40_AR36 Method;NE20;NE20 Units;NE20 Method;NE20_NE22;NE20_NE22 Units;NE20_NE22 Method;NE21_NE22;NE21_NE22 Units;NE21_NE22 Method;LA;LA Units;LA Method;CE;CE Units;CE Method;PR;PR Units;PR Method;ND;ND Units;ND Method;SM;SM Units;SM Method;EU;EU Units;EU Method;GD;GD Units;GD Method;TB;TB Units;TB Method;DY;DY Units;DY Method;HO;HO Units;HO Method;ER;ER Units;ER Method;TM;TM Units;TM Method;YB;YB Units;YB Method;LU;LU Units;LU Method;CO2;CO2 Units;CO2 Method;F;F Units;F Method;CL;CL Units;CL Method;U238_PB204;U238_PB204 Units;U238_PB204 Method;TH230_TH232;TH230_TH232 Units;TH230_TH232 Method;RA226_ACTIVITY;RA226_ACTIVITY Units;RA226_ACTIVITY Method;PB210_RA226;PB210_RA226 Units;PB210_RA226 Method;PB210_ACTIVITY;PB210_ACTIVITY Units;PB210_ACTIVITY Method;AG;AG Units;AG Method;AL;AL Units;AL Method;AS;AS Units;AS Method;AU;AU Units;AU Method;B;B Units;B Method;BA;BA Units;BA Method;BE;BE Units;BE Method;BI;BI Units;BI Method;CA;CA Units;CA Method;CD;CD Units;CD Method;CO;CO Units;CO Method;CR;CR Units;CR Method;CS;CS Units;CS Method;CU;CU Units;CU Method;GA;GA Units;GA Method;GER;GER Units;GER Method;HF;HF Units;HF Method;INDIUM;INDIUM Units;INDIUM Method;IR;IR Units;IR Method;K;K Units;K Method;LI;LI Units;LI Method;MN;MN Units;MN Method;MO;MO Units;MO Method;NA;NA Units;NA Method;NB;NB Units;NB Method;NI;NI Units;NI Method;OS;OS Units;OS Method;P;P Units;P Method;PB;PB Units;PB Method;PD;PD Units;PD Method;PT;PT Units;PT Method;RB;RB Units;RB Method;RE;RE Units;RE Method;RH;RH Units;RH Method;RU;RU Units;RU Method;S;S Units;S Method;SB;SB Units;SB Method;SC;SC Units;SC Method;SN;SN Units;SN Method;SR;SR Units;SR Method;TA;TA Units;TA Method;TH;TH Units;TH Method;TI;TI Units;TI Method;TL;TL Units;TL Method;U;U Units;U Method;V;V Units;V Method;W;W Units;W Method;Y;Y Units;Y Method;ZN;ZN Units;ZN Method;ZR;ZR Units;ZR Method;DELTA_O18;DELTA_O18 Units;DELTA_O18 Method;DELTA_C13;DELTA_C13 Units;DELTA_C13 Method;DELTA_MO98;DELTA_MO98 Units;DELTA_MO98 Method;DELTA_ZN66;DELTA_ZN66 Units;DELTA_ZN66 Method;DELTA_ZN68;DELTA_ZN68 Units;DELTA_ZN68 Method;OS188;OS188 Units;OS188 Method;FE3P_FET;FE3P_FET Units;FE3P_FET Method;TI;TI Units;TI Method;AS;AS Units;AS Method;AS;AS Units;AS Method;GER;GER Units;GER Method;H2O_M;H2O_M Units;H2O_M Method;H2O_P;H2O_P Units;H2O_P Method;H2O_M;H2O_M Units;H2O_M Method;H2O_P;H2O_P Units;H2O_P Method;INDIUM;INDIUM Units;INDIUM Method
GROSCAMP-W-241942;;GROSSMAN-CAMP;GROSSMAN, 1991;39,0197;-77,5647;0,001;;;CONTINENTAL_RIFT;;;;"AAS; COL; ICP; INAA; TITR; Unknown";WHOLE ROCK;IGNEOUS:VOLCANIC:MAFIC;DIABASE;;54,9;wt%;COL;2,06;wt%;COL;14,3;wt%;COL;;;;2,07;wt%;Unknown;;;;6,6;wt%;TITR;;;;;;;0,2;wt%;AAS;2,63;wt%;AAS;8,71;wt%;Unknown;;;;4,15;wt%;Unknown;3,44;wt%;AAS;0,21;wt%;COL;;;;;;;;;;0,1;wt%;TITR;0,8;wt%;TITR;;;;;;;;;;22;ppm;Unknown;23,5;ppm;Unknown;24;ppm;Unknown;;;;216;ppm;Unknown;;;;;;;0,02;ppm;INAA;;;;;;;;;;;;;;;;;;;;;;;;;;;;;;;;;;;;;;;;;;;;;;;;;;;;;;;;;;;;;;;;;;;;;;;;;;;;;;;;;;;;;;;;;;;;;;;;;;;;;;;;;;;;;;;;;;;;;;;;;26,7;ppm;INAA;52;ppm;INAA;;;;26;ppm;INAA;6,4;ppm;INAA;1,79;ppm;INAA;;;;1,05;ppm;INAA;;;;;;;;;;;;;3,3;ppm;INAA;0,43;ppm;INAA;0,13;ppm;TITR;0,03;ppm;INAA;;;;;;;;;;;;;;;;;;;;;;;;;;;;;;;;;;1550;ppm;Unknown;;;;;;;;;;;;;23,5;ppm;Unknown;;;;0,41;ppm;INAA;24;ppm;Unknown;;;;;;;4,8;ppm;INAA;;;;;;;;;;;;;;;;;;;;;;17;ppm;ICP;22;ppm;Unknown;;;;;;;;;;11;ppm;Unknown;3,5;ppm;Unknown;98;ppm;Unknown;;;;;;;;;;0,02;ppm;INAA;0,26;ppm;INAA;30;ppm;INAA;;;;320;ppm;Unknown;1,1;ppm;INAA;4,3;ppm;INAA;;;;;;;2,1;ppm;INAA;;;;;;;42;ppm;Unknown;216;ppm;Unknown;176;ppm;Unknown;;;;;;;;;;;;;;;;;;;;;;;;;;;;;;;;;;0,1;wt%;TITR;0,8;wt%;TITR;0,1;wt%;TITR;0,8;wt%;TITR;;;
GROSCAMP-W-241943;;GROSSMAN-CAMP;GROSSMAN, 1991;39,0197;-77,5644;0,001;;;CONTINENTAL_RIFT;;;;"AAS; COL; ES; ICP; INAA; TITR; Unknown";WHOLE ROCK;IGNEOUS:VOLCANIC:MAFIC;DIABASE;;54,1;wt%;COL;1,58;wt%;COL;15,3;wt%;COL;;;;3,36;wt%;Unknown;;;;7,6;wt%;TITR;;;;;;;0,14;wt%;AAS;2,51;wt%;AAS;7,59;wt%;Unknown;;;;6,2;wt%;Unknown;0,45;wt%;AAS;0,21;wt%;COL;;;;;;;;;;0,2;wt%;TITR;1,7;wt%;TITR;;;;;;;;;;15;ppm;Unknown;34;ppm;Unknown;115;ppm;Unknown;;;;113;ppm;Unknown;7,1;ppm;INAA;;;;0,03;ppm;INAA;;;;;;;;;;;;;;;;;;;;;;;;;;;;;;;;;;;;;;;;;;;;;;;;;;;;;;;;;;;;;;;;;;;;;;;;;;;;;;;;;;;;;;;;;;;;;;;;;;;;;;;;;;;;;;;;;;;;;;;;;17,5;ppm;INAA;37;ppm;INAA;;;;21;ppm;INAA;5,4;ppm;INAA;1,39;ppm;INAA;;;;1,01;ppm;INAA;;;;;;;;;;;;;2,9;ppm;INAA;0,39;ppm;INAA;0,14;ppm;TITR;0,03;ppm;INAA;;;;;;;;;;;;;;;;;;;;;;;;;7,1;ppm;INAA;;;;9,7;ppm;ES;57;ppm;Unknown;;;;;;;;;;;;;34;ppm;Unknown;6,5;ppm;Unknown;0,21;ppm;INAA;115;ppm;Unknown;;;;;;;3,8;ppm;INAA;;;;;;;;;;;;;;;;;;;;;;15;ppm;ICP;15;ppm;Unknown;;;;;;;;;;9,4;ppm;Unknown;4;ppm;Unknown;16;ppm;Unknown;;;;;;;;;;0,03;ppm;INAA;;;;27,9;ppm;INAA;;;;148;ppm;Unknown;0,88;ppm;INAA;3,8;ppm;INAA;;;;;;;0,6;ppm;INAA;;;;;;;36;ppm;Unknown;113;ppm;Unknown;138;ppm;Unknown;;;;;;;;;;;;;;;;;;;;;;;;;7,1;ppm;INAA;7,1;ppm;INAA;;;;0,2;wt%;TITR;1,7;wt%;TITR;0,2;wt%;TITR;1,7;wt%;TITR;;;
GROSCAMP-W-241944;;GROSSMAN-CAMP;GROSSMAN, 1991;39,0197;-77,5644;0,001;;;CONTINENTAL_RIFT;;;;"AAS; COL; ES; ICP; INAA; TITR; Unknown";WHOLE ROCK;IGNEOUS:VOLCANIC:MAFIC;DIABASE;;51,4;wt%;COL;2;wt%;COL;13,8;wt%;COL;;;;3,88;wt%;Unknown;;;;10,4;wt%;TITR;;;;;;;0,22;wt%;AAS;5,06;wt%;AAS;10,5;wt%;Unknown;;;;2,4;wt%;Unknown;0,72;wt%;AAS;0,15;wt%;COL;;;;;;;;;;0,12;wt%;TITR;0,72;wt%;TITR;;;;;;;;;;41;ppm;Unknown;51;ppm;Unknown;113;ppm;Unknown;;;;82;ppm;Unknown;;;;;;;0,02;ppm;INAA;;;;;;;;;;;;;;;;;;;;;;;;;;;;;;;;;;;;;;;;;;;;;;;;;;;;;;;;;;;;;;;;;;;;;;;;;;;;;;;;;;;;;;;;;;;;;;;;;;;;;;;;;;;;;;;;;;;;;;;;;13,1;ppm;INAA;27,7;ppm;INAA;;;;15;ppm;INAA;4,1;ppm;INAA;1,24;ppm;INAA;;;;0,83;ppm;INAA;;;;;;;;;;;;;2,5;ppm;INAA;0,39;ppm;INAA;0,02;ppm;TITR;0,03;ppm;INAA;;;;;;;;;;;;;;;;;;;;;;;;;;;;;;;8,7;ppm;ES;188;ppm;Unknown;;;;;;;;;;;;;51;ppm;Unknown;22;ppm;Unknown;1,5;ppm;INAA;113;ppm;Unknown;;;;;;;3,2;ppm;INAA;;;;;;;;;;;;;;;;;;;;;;14;ppm;ICP;41;ppm;Unknown;;;;;;;;;;;;;;;;24;ppm;Unknown;;;;;;;;;;0,02;ppm;INAA;;;;42;ppm;INAA;;;;199;ppm;Unknown;0,77;ppm;INAA;2,8;ppm;INAA;;;;;;;0,57;ppm;INAA;;;;;;;24;ppm;Unknown;82;ppm;Unknown;97;ppm;Unknown;;;;;;;;;;;;;;;;;;;;;;;;;;;;;;;;;;0,12;wt%;TITR;0,72;wt%;TITR;0,12;wt%;TITR;0,72;wt%;TITR;;;
GROSCAMP-W-241945;;GROSSMAN-CAMP;GROSSMAN, 1991;39,0197;-77,5644;0,001;;;CONTINENTAL_RIFT;;;;"AAS; COL; ES; ICP; INAA; TITR; Unknown";WHOLE ROCK;IGNEOUS:VOLCANIC:MAFIC;DIABASE;;53,2;wt%;COL;1,46;wt%;COL;15,6;wt%;COL;;;;3,05;wt%;Unknown;;;;8,8;wt%;TITR;;;;;;;0,18;wt%;AAS;3,92;wt%;AAS;9,27;wt%;Unknown;;;;2,76;wt%;Unknown;1,3;wt%;AAS;0,2;wt%;COL;;;;;;;;;;0,16;wt%;TITR;0,74;wt%;TITR;;;;;;;;;;37;ppm;Unknown;41;ppm;Unknown;104;ppm;Unknown;;;;90;ppm;Unknown;;;;;;;0,03;ppm;INAA;;;;;;;;;;;;;;;;;;;;;;;;;;;;;;;;;;;;;;;;;;;;;;;;;;;;;;;;;;;;;;;;;;;;;;;;;;;;;;;;;;;;;;;;;;;;;;;;;;;;;;;;;;;;;;;;;;;;;;;;;16,2;ppm;INAA;34;ppm;INAA;;;;18;ppm;INAA;4,7;ppm;INAA;1,53;ppm;INAA;;;;0,88;ppm;INAA;;;;;;;;;;;;;2,9;ppm;INAA;0,41;ppm;INAA;0,02;ppm;TITR;0,03;ppm;INAA;;;;;;;;;;;;;;;;;;;;;;;;;;;;8,1;ppm;INAA;17;ppm;ES;280;ppm;Unknown;;;;;;;;;;;;;41;ppm;Unknown;21;ppm;Unknown;0,77;ppm;INAA;104;ppm;Unknown;;;;;;;3,6;ppm;INAA;;;;;;;;;;;;;;;;;;;;;;12;ppm;ICP;37;ppm;Unknown;;;;;;;;;;11;ppm;Unknown;4,1;ppm;Unknown;48;ppm;Unknown;;;;;;;;;;0,03;ppm;INAA;0,25;ppm;INAA;33;ppm;INAA;;;;310;ppm;Unknown;0,8;ppm;INAA;3,4;ppm;INAA;;;;;;;1,2;ppm;INAA;140;ppm;ICP;;;;33;ppm;Unknown;90;ppm;Unknown;129;ppm;Unknown;;;;;;;;;;;;;;;;;;;;;;;;;;;;;;;;;;0,16;wt%;TITR;0,74;wt%;TITR;0,16;wt%;TITR;0,74;wt%;TITR;;;
GROSCAMP-W-241946;;GROSSMAN-CAMP;GROSSMAN, 1991;39,0167;-77,55;0,001;;;CONTINENTAL_RIFT;;;;"AAS; COL; ICP; INAA; TITR; Unknown";WHOLE ROCK;IGNEOUS:VOLCANIC:MAFIC;DIABASE;;52,2;wt%;COL;1,7;wt%;COL;12,9;wt%;COL;;;;0,18;wt%;Unknown;;;;3,4;wt%;TITR;;;;;;;0,06;wt%;AAS;1,57;wt%;AAS;15;wt%;Unknown;;;;4,29;wt%;Unknown;0,28;wt%;AAS;0,23;wt%;COL;;;;;;;;;;0,08;wt%;TITR;2;wt%;TITR;;;;;;;;;;12;ppm;Unknown;14,9;ppm;Unknown;36;ppm;Unknown;;;;94;ppm;Unknown;11;ppm;INAA;;;;0,01;ppm;INAA;;;;;;;;;;;;;;;;;;;;;;;;;;;;;;;;;;;;;;;;;;;;;;;;;;;;;;;;;;;;;;;;;;;;;;;;;;;;;;;;;;;;;;;;;;;;;;;;;;;;;;;;;;;;;;;;;;;;;;;;;15;ppm;INAA;33;ppm;INAA;;;;18;ppm;INAA;4,9;ppm;INAA;2,15;ppm;INAA;;;;0,85;ppm;INAA;;;;;;;;;;;;;2,5;ppm;INAA;0,38;ppm;INAA;0,63;ppm;TITR;0,03;ppm;INAA;;;;;;;;;;;;;;;;;;;;;;;;;11;ppm;INAA;;;;;;;64;ppm;Unknown;;;;;;;;;;;;;14,9;ppm;Unknown;;;;0,18;ppm;INAA;36;ppm;Unknown;;;;;;;4;ppm;INAA;;;;;;;;;;;;;;;;;;;;;;14;ppm;ICP;12;ppm;Unknown;;;;;;;;;;12;ppm;Unknown;1,9;ppm;Unknown;16;ppm;Unknown;;;;;;;;;;0,01;ppm;INAA;0,27;ppm;INAA;17;ppm;INAA;;;;89;ppm;Unknown;0,93;ppm;INAA;3,9;ppm;INAA;;;;;;;1;ppm;INAA;;;;;;;38;ppm;Unknown;94;ppm;Unknown;179;ppm;Unknown;;;;;;;;;;;;;;;;;;;;;;;;;11;ppm;INAA;11;ppm;INAA;;;;0,08;wt%;TITR;2;wt%;TITR;0,08;wt%;TITR;2;wt%;TITR;;;
GROSCAMP-W-241947;;GROSSMAN-CAMP;GROSSMAN, 1991;39,0197;-77,5644;0,001;;;CONTINENTAL_RIFT;;;;"AAS; COL; ICP; INAA; TITR; Unknown";WHOLE ROCK;IGNEOUS:VOLCANIC:MAFIC;DIABASE;;52,6;wt%;COL;2,18;wt%;COL;15,4;wt%;COL;;;;3,25;wt%;Unknown;;;;9,7;wt%;TITR;;;;;;;0,17;wt%;AAS;2,27;wt%;AAS;6,34;wt%;Unknown;;;;4,92;wt%;Unknown;1,85;wt%;AAS;0,26;wt%;COL;;;;;;;;;;0,12;wt%;TITR;1,2;wt%;TITR;;;;;;;;;;16;ppm;Unknown;37;ppm;Unknown;127;ppm;Unknown;;;;84;ppm;Unknown;3;ppm;INAA;;;;0,03;ppm;INAA;;;;;;;;;;;;;;;;;;;;;;;;;;;;;;;;;;;;;;;;;;;;;;;;;;;;;;;;;;;;;;;;;;;;;;;;;;;;;;;;;;;;;;;;;;;;;;;;;;;;;;;;;;;;;;;;;;;;;;;;;20,1;ppm;INAA;42;ppm;INAA;;;;21;ppm;INAA;6,1;ppm;INAA;1,77;ppm;INAA;;;;1,15;ppm;INAA;;;;;;;;;;;;;3,7;ppm;INAA;0,51;ppm;INAA;0,01;ppm;TITR;0,04;ppm;INAA;;;;;;;;;;;;;;;;;;;;;;;;;3;ppm;INAA;;;;;;;292;ppm;Unknown;;;;;;;;;;;;;37;ppm;Unknown;;;;0,42;ppm;INAA;127;ppm;Unknown;;;;;;;4,9;ppm;INAA;;;;;;;;;;;;;;;;;;;;;;20;ppm;ICP;16;ppm;Unknown;;;;;;;;;;19;ppm;Unknown;3,8;ppm;Unknown;70;ppm;Unknown;;;;;;;;;;0,03;ppm;INAA;0,33;ppm;INAA;31;ppm;INAA;;;;400;ppm;Unknown;1,1;ppm;INAA;4,3;ppm;INAA;;;;;;;1,1;ppm;INAA;;;;;;;39;ppm;Unknown;84;ppm;Unknown;168;ppm;Unknown;;;;;;;;;;;;;;;;;;;;;;;;;3;ppm;INAA;3;ppm;INAA;;;;0,12;wt%;TITR;1,2;wt%;TITR;0,12;wt%;TITR;1,2;wt%;TITR;;;
GROSCAMP-W-241948;;GROSSMAN-CAMP;GROSSMAN, 1991;40,2022;-76,8667;0,001;;;CONTINENTAL_RIFT;;;;"AAS; COL; ES; ICP; INAA; TITR; Unknown";WHOLE ROCK;IGNEOUS:VOLCANIC:MAFIC;DIABASE;;50,3;wt%;COL;2,2;wt%;COL;14,2;wt%;COL;;;;4,89;wt%;Unknown;;;;10,4;wt%;TITR;;;;;;;0,19;wt%;AAS;4,35;wt%;AAS;9,98;wt%;Unknown;;;;2,63;wt%;Unknown;0,77;wt%;AAS;0,15;wt%;COL;;;;;;;;;;0,41;wt%;TITR;0,59;wt%;TITR;;;;;;;;;;42;ppm;Unknown;59;ppm;Unknown;141;ppm;Unknown;;;;113;ppm;Unknown;3,6;ppm;INAA;;;;0,02;ppm;INAA;;;;;;;;;;;;;;;;;;;;;;;;;;;;;;;;;;;;;;;;;;;;;;;;;;;;;;;;;;;;;;;;;;;;;;;;;;;;;;;;;;;;;;;;;;;;;;;;;;;;;;;;;;;;;;;;;;;;;;;;;13,4;ppm;INAA;28,4;ppm;INAA;;;;14;ppm;INAA;4,1;ppm;INAA;1,33;ppm;INAA;;;;0,72;ppm;INAA;;;;;;;;;;;;;2,6;ppm;INAA;0,37;ppm;INAA;0,25;ppm;TITR;0,02;ppm;INAA;0,06;ppm;INAA;;;;;;;;;;;;;;;;;;;;;;3,6;ppm;INAA;;;;16,7;ppm;ES;178;ppm;Unknown;;;;;;;;;;;;;59;ppm;Unknown;6;ppm;Unknown;1,2;ppm;INAA;141;ppm;Unknown;;;;;;;3,3;ppm;INAA;;;;;;;;;;;;;;;;;;;;;;11;ppm;ICP;42;ppm;Unknown;;;;;;;;;;9;ppm;Unknown;3,1;ppm;Unknown;28;ppm;Unknown;;;;;;;;;;0,02;ppm;INAA;0,32;ppm;INAA;40;ppm;INAA;;;;194;ppm;Unknown;0,71;ppm;INAA;2,8;ppm;INAA;;;;;;;0,57;ppm;INAA;;;;;;;32;ppm;Unknown;113;ppm;Unknown;119;ppm;Unknown;;;;;;;;;;;;;;;;;;;;;;;;;3,6;ppm;INAA;3,6;ppm;INAA;;;;0,41;wt%;TITR;0,59;wt%;TITR;0,41;wt%;TITR;0,59;wt%;TITR;;;
GROSCAMP-W-241949;;GROSSMAN-CAMP;GROSSMAN, 1991;40,2022;-76,8667;0,001;;;CONTINENTAL_RIFT;;;;"AAS; COL; ES; ICP; INAA; TITR; Unknown";WHOLE ROCK;IGNEOUS:VOLCANIC:MAFIC;DIABASE;;53;wt%;COL;1,44;wt%;COL;15,9;wt%;COL;;;;3,1;wt%;Unknown;;;;8,4;wt%;TITR;;;;;;;0,15;wt%;AAS;3,9;wt%;AAS;9,81;wt%;Unknown;;;;3,03;wt%;Unknown;0,83;wt%;AAS;0,17;wt%;COL;;;;;;;;;;0,22;wt%;TITR;0,73;wt%;TITR;;;;;;;;;;35;ppm;Unknown;41;ppm;Unknown;133;ppm;Unknown;;;;68;ppm;Unknown;0,91;ppm;INAA;;;;0,02;ppm;INAA;;;;;;;;;;;;;;;;;;;;;;;;;;;;;;;;;;;;;;;;;;;;;;;;;;;;;;;;;;;;;;;;;;;;;;;;;;;;;;;;;;;;;;;;;;;;;;;;;;;;;;;;;;;;;;;;;;;;;;;;;14,7;ppm;INAA;29,6;ppm;INAA;;;;16;ppm;INAA;4,4;ppm;INAA;1,41;ppm;INAA;;;;0,74;ppm;INAA;;;;;;;;;;;;;2,7;ppm;INAA;0,38;ppm;INAA;0,08;ppm;TITR;0,02;ppm;INAA;0,12;ppm;INAA;;;;;;;;;;;;;;;;;;;;;;0,91;ppm;INAA;;;;23,8;ppm;ES;199;ppm;Unknown;;;;;;;;;;;;;41;ppm;Unknown;4,5;ppm;Unknown;1;ppm;INAA;133;ppm;Unknown;;;;;;;3,3;ppm;INAA;;;;;;;;;;;;;;;;;;;;;;10;ppm;ICP;35;ppm;Unknown;;;;;;;;;;8,1;ppm;Unknown;2,9;ppm;Unknown;31;ppm;Unknown;;;;;;;;;;0,02;ppm;INAA;;;;33;ppm;INAA;;;;218;ppm;Unknown;0,69;ppm;INAA;2,8;ppm;INAA;;;;;;;0,63;ppm;INAA;;;;;;;31;ppm;Unknown;68;ppm;Unknown;124;ppm;Unknown;;;;;;;;;;;;;;;;;;;;;;;;;0,91;ppm;INAA;0,91;ppm;INAA;;;;0,22;wt%;TITR;0,73;wt%;TITR;0,22;wt%;TITR;0,73;wt%;TITR;;;
GROSCAMP-W-241950;;GROSSMAN-CAMP;GROSSMAN, 1991;40,2022;-76,8667;0,001;;;CONTINENTAL_RIFT;;;;"AAS; COL; ES; ICP; INAA; TITR; Unknown";WHOLE ROCK;IGNEOUS:VOLCANIC:MAFIC;DIABASE;;52,3;wt%;COL;1,57;wt%;COL;16,7;wt%;COL;;;;3,21;wt%;Unknown;;;;8,2;wt%;TITR;;;;;;;0,18;wt%;AAS;3,57;wt%;AAS;9,86;wt%;Unknown;;;;3,05;wt%;Unknown;0,89;wt%;AAS;0,17;wt%;COL;;;;;;;;;;0,22;wt%;TITR;0,78;wt%;TITR;;;;;;;;;;32;ppm;Unknown;40;ppm;Unknown;152;ppm;Unknown;;;;102;ppm;Unknown;;;;;;;0,03;ppm;INAA;;;;;;;;;;;;;;;;;;;;;;;;;;;;;;;;;;;;;;;;;;;;;;;;;;;;;;;;;;;;;;;;;;;;;;;;;;;;;;;;;;;;;;;;;;;;;;;;;;;;;;;;;;;;;;;;;;;;;;;;;14,2;ppm;INAA;28;ppm;INAA;;;;15;ppm;INAA;4,2;ppm;INAA;1,4;ppm;INAA;;;;0,79;ppm;INAA;;;;;;;;;;;;;2,5;ppm;INAA;0,38;ppm;INAA;0,02;ppm;TITR;0,02;ppm;INAA;0,14;ppm;INAA;;;;;;;;;;;;;;;;;;;;;;;;;;;;20,7;ppm;ES;221;ppm;Unknown;;;;;;;;;;;;;40;ppm;Unknown;8,9;ppm;Unknown;1;ppm;INAA;152;ppm;Unknown;;;;;;;3,1;ppm;INAA;;;;;;;;;;;;;;;;;;;;;;10;ppm;ICP;32;ppm;Unknown;;;;;;;;;;12;ppm;Unknown;3;ppm;Unknown;25;ppm;Unknown;;;;;;;;;;0,03;ppm;INAA;0,15;ppm;INAA;29,7;ppm;INAA;;;;246;ppm;Unknown;0,72;ppm;INAA;2,8;ppm;INAA;;;;;;;;;;;;;;;;24;ppm;Unknown;102;ppm;Unknown;123;ppm;Unknown;;;;;;;;;;;;;;;;;;;;;;;;;;;;;;;;;;0,22;wt%;TITR;0,78;wt%;TITR;0,22;wt%;TITR;0,78;wt%;TITR;;;
GROSCAMP-W-241951;;GROSSMAN-CAMP;GROSSMAN, 1991;40,2022;-76,8667;0,001;;;CONTINENTAL_RIFT;;;;"AAS; COL; ICP; INAA; TITR; Unknown";WHOLE ROCK;IGNEOUS:VOLCANIC:MAFIC;DIABASE;;52,9;wt%;COL;1,57;wt%;COL;15,9;wt%;COL;;;;3,27;wt%;Unknown;;;;8,6;wt%;TITR;;;;;;;0,15;wt%;AAS;3,81;wt%;AAS;9,22;wt%;Unknown;;;;2,92;wt%;Unknown;1,19;wt%;AAS;0,18;wt%;COL;;;;;;;;;;0,14;wt%;TITR;0,86;wt%;TITR;;;;;;;;;;31;ppm;Unknown;41;ppm;Unknown;115;ppm;Unknown;;;;61;ppm;Unknown;2,1;ppm;INAA;;;;0,04;ppm;INAA;;;;;;;;;;;;;;;;;;;;;;;;;;;;;;;;;;;;;;;;;;;;;;;;;;;;;;;;;;;;;;;;;;;;;;;;;;;;;;;;;;;;;;;;;;;;;;;;;;;;;;;;;;;;;;;;;;;;;;;;;15,6;ppm;INAA;33;ppm;INAA;;;;17;ppm;INAA;4,6;ppm;INAA;1,5;ppm;INAA;;;;0,83;ppm;INAA;;;;;;;;;;;;;2,7;ppm;INAA;0,38;ppm;INAA;0,04;ppm;TITR;0,02;ppm;INAA;0,19;ppm;INAA;;;;;;;;;;;;;;;;;;;;;;2,1;ppm;INAA;7,8;ppm;INAA;;;;261;ppm;Unknown;;;;;;;;;;;;;41;ppm;Unknown;10;ppm;Unknown;0,89;ppm;INAA;115;ppm;Unknown;;;;;;;3,4;ppm;INAA;;;;;;;;;;;;;;;;;;;;;;11;ppm;ICP;31;ppm;Unknown;;;;;;;;;;11;ppm;Unknown;4,2;ppm;Unknown;40;ppm;Unknown;;;;;;;;;;0,04;ppm;INAA;0,24;ppm;INAA;32;ppm;INAA;;;;219;ppm;Unknown;0,82;ppm;INAA;3,4;ppm;INAA;;;;;;;0,69;ppm;INAA;;;;;;;28;ppm;Unknown;61;ppm;Unknown;121;ppm;Unknown;;;;;;;;;;;;;;;;;;;;;;;;;2,1;ppm;INAA;2,1;ppm;INAA;;;;0,14;wt%;TITR;0,86;wt%;TITR;0,14;wt%;TITR;0,86;wt%;TITR;;;
GROSCAMP-W-246939;;GROSSMAN-CAMP;GROSSMAN, 1991;38,526;-78,014;0,001;;;CONTINENTAL_RIFT;;;;"ICPMS; Unknown";WHOLE ROCK;IGNEOUS:VOLCANIC:MAFIC;DIABASE;;;;;;;;;;;;;;;;;;;;;;;;;;;;;;;;;;;;;;;;;;;;;;;;;;;;;;;;;;;;;;;;;;;;;;;;;;19;ppm;Unknown;44;ppm;Unknown;230;ppm;Unknown;;;;;;;;;;;;;;;;;;;;;;;;;;;;;;;;;;;;;;;;;;;;;;;;;;;;;;;;;;;;;;;;;;;;;;;;;;;;;;;;;;;;;;;;;;;;;;;;;;;;;;;;;;;;;;;;;;;;;;;;;;;;;;;;;;;;;;;;;;;;;;;;;;;;;;;;;;;;;;;;;;;;;;;;;;;;;;;;;;;;;;;;;;;;;;;;;;;;;;;;;;;;;;;;;;;;;;;;;;;;;;;;;;;;;;;;44;ppm;Unknown;;;;;;;230;ppm;Unknown;;;;;;;;;;;;;;;;;;;;;;;;;;;;;;;;;;19;ppm;Unknown;;;;;;;;;;37;ppm;Unknown;6,5;ppm;Unknown;;;;;;;;;;0,7;ppm;ICPMS;;;;;;;;;;;;;;;;;;;;;;;;;;;;;;;;;;;;;;;;;;;;;;;;;;;;;;;;;;;;;;;;;;;;;;;;;;;;;;;;;;;;;;;;;;;;;
GROSCAMP-W-241952;;GROSSMAN-CAMP;GROSSMAN, 1991;40,2022;-76,8667;0,001;;;CONTINENTAL_RIFT;;;;"AAS; COL; ES; ICP; INAA; TITR; Unknown";WHOLE ROCK;IGNEOUS:VOLCANIC:MAFIC;DIABASE;;52,9;wt%;COL;1,62;wt%;COL;15,7;wt%;COL;;;;3,64;wt%;Unknown;;;;8,6;wt%;TITR;;;;;;;0,16;wt%;AAS;4,05;wt%;AAS;9,42;wt%;Unknown;;;;2,8;wt%;Unknown;1,04;wt%;AAS;0,19;wt%;COL;;;;;;;;;;0,24;wt%;TITR;0,66;wt%;TITR;;;;;;;;;;35;ppm;Unknown;43;ppm;Unknown;130;ppm;Unknown;;;;66;ppm;Unknown;1,7;ppm;INAA;;;;0,03;ppm;INAA;;;;;;;;;;;;;;;;;;;;;;;;;;;;;;;;;;;;;;;;;;;;;;;;;;;;;;;;;;;;;;;;;;;;;;;;;;;;;;;;;;;;;;;;;;;;;;;;;;;;;;;;;;;;;;;;;;;;;;;;;16,6;ppm;INAA;33;ppm;INAA;;;;17;ppm;INAA;4,8;ppm;INAA;1,41;ppm;INAA;;;;0,87;ppm;INAA;;;;;;;;;;;;;2,9;ppm;INAA;0,39;ppm;INAA;0,04;ppm;TITR;0,03;ppm;INAA;0,1;ppm;INAA;;;;;;;;;;;;;;;;;;;;;;1,7;ppm;INAA;;;;39;ppm;ES;237;ppm;Unknown;;;;;;;;;;;;;43;ppm;Unknown;12;ppm;Unknown;0,84;ppm;INAA;130;ppm;Unknown;;;;;;;3,6;ppm;INAA;;;;;;;;;;;;;;;;;;;;;;11;ppm;ICP;35;ppm;Unknown;;;;;;;;;;8,6;ppm;Unknown;4,1;ppm;Unknown;36;ppm;Unknown;;;;;;;;;;0,03;ppm;INAA;0,2;ppm;INAA;34;ppm;INAA;;;;219;ppm;Unknown;0,83;ppm;INAA;3,4;ppm;INAA;;;;;;;0,74;ppm;INAA;;;;;;;34;ppm;Unknown;66;ppm;Unknown;127;ppm;Unknown;;;;;;;;;;;;;;;;;;;;;;;;;1,7;ppm;INAA;1,7;ppm;INAA;;;;0,24;wt%;TITR;0,66;wt%;TITR;0,24;wt%;TITR;0,66;wt%;TITR;;;