SAMPLE ID;IGSN;EXPEDITION ID;REFERENCES;LATITUDE;LONGITUDE;LOC PREC;MIN ELEVATION;MAX ELEVATION;TECTONIC SETTING;MIN AGE;AGE;MAX AGE;METHOD;ANALYZED MATERIAL;ROCK TYPE;ROCK NAME;MINERAL;SIO2;SIO2 Units;SIO2 Method;TIO2;TIO2 Units;TIO2 Method;AL2O3;AL2O3 Units;AL2O3 Method;CR2O3;CR2O3 Units;CR2O3 Method;FE2O3;FE2O3 Units;FE2O3 Method;FE2O3T;FE2O3T Units;FE2O3T Method;FEO;FEO Units;FEO Method;FEOT;FEOT Units;FEOT Method;NIO;NIO Units;NIO Method;MNO;MNO Units;MNO Method;MGO;MGO Units;MGO Method;CAO;CAO Units;CAO Method;SRO;SRO Units;SRO Method;NA2O;NA2O Units;NA2O Method;K2O;K2O Units;K2O Method;P2O5;P2O5 Units;P2O5 Method;BAO;BAO Units;BAO Method;LOI;LOI Units;LOI Method;H2O;H2O Units;H2O Method;H2O_M;H2O_M Units;H2O_M Method;H2O_P;H2O_P Units;H2O_P Method;SO3;SO3 Units;SO3 Method;COO;COO Units;COO Method;MN;MN Units;MN Method;NI;NI Units;NI Method;CO;CO Units;CO Method;CU;CU Units;CU Method;CD;CD Units;CD Method;ZN;ZN Units;ZN Method;AS;AS Units;AS Method;AG;AG Units;AG Method;S;S Units;S Method;ZRO2;ZRO2 Units;ZRO2 Method;AL;AL Units;AL Method;CA;CA Units;CA Method;SR87_SR86;SR87_SR86 Units;SR87_SR86 Method;SR87_SR86_INI;SR87_SR86_INI Units;SR87_SR86_INI Method;RB87_SR86;RB87_SR86 Units;RB87_SR86 Method;ND143_ND144;ND143_ND144 Units;ND143_ND144 Method;ND143_ND144_INI;ND143_ND144_INI Units;ND143_ND144_INI Method;SM147_ND144;SM147_ND144 Units;SM147_ND144 Method;E_ND;E_ND Units;E_ND Method;E_ND_INI;E_ND_INI Units;E_ND_INI Method;PB204_PB206;PB204_PB206 Units;PB204_PB206 Method;PB206_PB204;PB206_PB204 Units;PB206_PB204 Method;PB206_PB204_INI;PB206_PB204_INI Units;PB206_PB204_INI Method;PB207_PB204;PB207_PB204 Units;PB207_PB204 Method;PB207_PB204_INI;PB207_PB204_INI Units;PB207_PB204_INI Method;PB207_PB206;PB207_PB206 Units;PB207_PB206 Method;PB208_PB204;PB208_PB204 Units;PB208_PB204 Method;PB208_PB204_INI;PB208_PB204_INI Units;PB208_PB204_INI Method;PB208_PB206;PB208_PB206 Units;PB208_PB206 Method;HF176_HF177;HF176_HF177 Units;HF176_HF177 Method;RE187_OS188;RE187_OS188 Units;RE187_OS188 Method;OS187_OS188;OS187_OS188 Units;OS187_OS188 Method;OS187_OS188_INI;OS187_OS188_INI Units;OS187_OS188_INI Method;G_OS;G_OS Units;G_OS Method;G_OS_INI;G_OS_INI Units;G_OS_INI Method;ND143_ND144_INI;ND143_ND144_INI Units;ND143_ND144_INI Method;PB206_PB204_INI;PB206_PB204_INI Units;PB206_PB204_INI Method;PB207_PB204_INI;PB207_PB204_INI Units;PB207_PB204_INI Method;PB208_PB204_INI;PB208_PB204_INI Units;PB208_PB204_INI Method;SR87_SR86_INI;SR87_SR86_INI Units;SR87_SR86_INI Method;HE;HE Units;HE Method;HE3;HE3 Units;HE3 Method;HE3_HE4_R_RA;HE3_HE4_R_RA Units;HE3_HE4_R_RA Method;AR36;AR36 Units;AR36 Method;AR40;AR40 Units;AR40 Method;AR40_AR36;AR40_AR36 Units;AR40_AR36 Method;NE20;NE20 Units;NE20 Method;NE20_NE22;NE20_NE22 Units;NE20_NE22 Method;NE21_NE22;NE21_NE22 Units;NE21_NE22 Method;LA;LA Units;LA Method;CE;CE Units;CE Method;PR;PR Units;PR Method;ND;ND Units;ND Method;SM;SM Units;SM Method;EU;EU Units;EU Method;GD;GD Units;GD Method;TB;TB Units;TB Method;DY;DY Units;DY Method;HO;HO Units;HO Method;ER;ER Units;ER Method;TM;TM Units;TM Method;YB;YB Units;YB Method;LU;LU Units;LU Method;CO2;CO2 Units;CO2 Method;F;F Units;F Method;CL;CL Units;CL Method;U238_PB204;U238_PB204 Units;U238_PB204 Method;TH230_TH232;TH230_TH232 Units;TH230_TH232 Method;RA226_ACTIVITY;RA226_ACTIVITY Units;RA226_ACTIVITY Method;PB210_RA226;PB210_RA226 Units;PB210_RA226 Method;PB210_ACTIVITY;PB210_ACTIVITY Units;PB210_ACTIVITY Method;AG;AG Units;AG Method;AL;AL Units;AL Method;AS;AS Units;AS Method;AU;AU Units;AU Method;B;B Units;B Method;BA;BA Units;BA Method;BE;BE Units;BE Method;BI;BI Units;BI Method;CA;CA Units;CA Method;CD;CD Units;CD Method;CO;CO Units;CO Method;CR;CR Units;CR Method;CS;CS Units;CS Method;CU;CU Units;CU Method;GA;GA Units;GA Method;GER;GER Units;GER Method;HF;HF Units;HF Method;INDIUM;INDIUM Units;INDIUM Method;IR;IR Units;IR Method;K;K Units;K Method;LI;LI Units;LI Method;MN;MN Units;MN Method;MO;MO Units;MO Method;NA;NA Units;NA Method;NB;NB Units;NB Method;NI;NI Units;NI Method;OS;OS Units;OS Method;P;P Units;P Method;PB;PB Units;PB Method;PD;PD Units;PD Method;PT;PT Units;PT Method;RB;RB Units;RB Method;RE;RE Units;RE Method;RH;RH Units;RH Method;RU;RU Units;RU Method;S;S Units;S Method;SB;SB Units;SB Method;SC;SC Units;SC Method;SN;SN Units;SN Method;SR;SR Units;SR Method;TA;TA Units;TA Method;TH;TH Units;TH Method;TI;TI Units;TI Method;TL;TL Units;TL Method;U;U Units;U Method;V;V Units;V Method;W;W Units;W Method;Y;Y Units;Y Method;ZN;ZN Units;ZN Method;ZR;ZR Units;ZR Method;DELTA_O18;DELTA_O18 Units;DELTA_O18 Method;DELTA_C13;DELTA_C13 Units;DELTA_C13 Method;DELTA_MO98;DELTA_MO98 Units;DELTA_MO98 Method;DELTA_ZN66;DELTA_ZN66 Units;DELTA_ZN66 Method;DELTA_ZN68;DELTA_ZN68 Units;DELTA_ZN68 Method;OS188;OS188 Units;OS188 Method;FE3P_FET;FE3P_FET Units;FE3P_FET Method;TI;TI Units;TI Method;AS;AS Units;AS Method;AS;AS Units;AS Method;GER;GER Units;GER Method;H2O_M;H2O_M Units;H2O_M Method;H2O_P;H2O_P Units;H2O_P Method;H2O_M;H2O_M Units;H2O_M Method;H2O_P;H2O_P Units;H2O_P Method;INDIUM;INDIUM Units;INDIUM Method
GROSCAMP-W-241920;;GROSSMAN-CAMP;GROSSMAN, 1991;39,0169;-77,565;0,001;;;CONTINENTAL_RIFT;;;;"AAS; COL; ICP; INAA; TITR; Unknown";WHOLE ROCK;IGNEOUS:VOLCANIC:MAFIC;DIABASE;;52;wt%;COL;2;wt%;COL;16,1;wt%;COL;;;;3,12;wt%;Unknown;;;;7,2;wt%;TITR;;;;;;;0,18;wt%;AAS;2,28;wt%;AAS;10,1;wt%;Unknown;;;;4,45;wt%;Unknown;1,29;wt%;AAS;0,19;wt%;COL;;;;;;;;;;0,05;wt%;TITR;1,5;wt%;TITR;;;;;;;;;;16;ppm;Unknown;31;ppm;Unknown;147;ppm;Unknown;;;;118;ppm;Unknown;5,2;ppm;INAA;;;;0,04;ppm;INAA;;;;;;;;;;;;;;;;;;;;;;;;;;;;;;;;;;;;;;;;;;;;;;;;;;;;;;;;;;;;;;;;;;;;;;;;;;;;;;;;;;;;;;;;;;;;;;;;;;;;;;;;;;;;;;;;;;;;;;;;;17,4;ppm;INAA;36;ppm;INAA;;;;19;ppm;INAA;5,1;ppm;INAA;1,8;ppm;INAA;;;;0,93;ppm;INAA;;;;;;;;;;;;;3,1;ppm;INAA;0,45;ppm;INAA;0,02;ppm;TITR;0,04;ppm;INAA;0,1;ppm;INAA;;;;;;;;;;;;;;;;;;;;;;5,2;ppm;INAA;;;;;;;248;ppm;Unknown;;;;;;;;;;;;;31;ppm;Unknown;2,6;ppm;Unknown;0,22;ppm;INAA;147;ppm;Unknown;;;;;;;4;ppm;INAA;;;;;;;;;;;;;;;;;;;;;;13;ppm;ICP;16;ppm;Unknown;;;;;;;;;;18;ppm;Unknown;3,7;ppm;Unknown;33;ppm;Unknown;;;;;;;;;;0,04;ppm;INAA;0,21;ppm;INAA;29,5;ppm;INAA;;;;290;ppm;Unknown;0,9;ppm;INAA;3,7;ppm;INAA;;;;;;;0,86;ppm;INAA;;;;;;;33;ppm;Unknown;118;ppm;Unknown;137;ppm;Unknown;;;;;;;;;;;;;;;;;;;;;;;;;5,2;ppm;INAA;5,2;ppm;INAA;;;;0,05;wt%;TITR;1,5;wt%;TITR;0,05;wt%;TITR;1,5;wt%;TITR;;;
GROSCAMP-W-241921;;GROSSMAN-CAMP;GROSSMAN, 1991;39,0169;-77,565;0,001;;;CONTINENTAL_RIFT;;;;"AAS; COL; ES; ICP; INAA; TITR; Unknown";WHOLE ROCK;IGNEOUS:VOLCANIC:MAFIC;DIABASE;;52,6;wt%;COL;2,24;wt%;COL;15,7;wt%;COL;;;;3,08;wt%;Unknown;;;;9,9;wt%;TITR;;;;;;;0,19;wt%;AAS;2,43;wt%;AAS;8,97;wt%;Unknown;;;;3,1;wt%;Unknown;1,07;wt%;AAS;0,22;wt%;COL;;;;;;;;;;0,12;wt%;TITR;0,88;wt%;TITR;;;;;;;;;;15;ppm;Unknown;39;ppm;Unknown;173;ppm;Unknown;;;;91;ppm;Unknown;3,4;ppm;INAA;;;;0,02;ppm;INAA;;;;;;;;;;;;;;;;;;;;;;;;;;;;;;;;;;;;;;;;;;;;;;;;;;;;;;;;;;;;;;;;;;;;;;;;;;;;;;;;;;;;;;;;;;;;;;;;;;;;;;;;;;;;;;;;;;;;;;;;;18,1;ppm;INAA;39;ppm;INAA;;;;20;ppm;INAA;5,3;ppm;INAA;1,71;ppm;INAA;;;;1,02;ppm;INAA;;;;;;;;;;;;;3,4;ppm;INAA;0,46;ppm;INAA;0,02;ppm;TITR;0,03;ppm;INAA;0,23;ppm;INAA;;;;;;;;;;;;;;;;;;;;;;3,4;ppm;INAA;8,8;ppm;INAA;15;ppm;ES;265;ppm;Unknown;;;;;;;;;;;;;39;ppm;Unknown;;;;1,5;ppm;INAA;173;ppm;Unknown;;;;;;;4,1;ppm;INAA;;;;;;;;;;;;;;;;;;;;;;13;ppm;ICP;15;ppm;Unknown;;;;;;;;;;7,6;ppm;Unknown;4,9;ppm;Unknown;36;ppm;Unknown;;;;;;;;;;0,02;ppm;INAA;0,31;ppm;INAA;30;ppm;INAA;;;;253;ppm;Unknown;0,92;ppm;INAA;3,9;ppm;INAA;;;;;;;0,92;ppm;INAA;;;;;;;34;ppm;Unknown;91;ppm;Unknown;151;ppm;Unknown;;;;;;;;;;;;;;;;;;;;;;;;;3,4;ppm;INAA;3,4;ppm;INAA;;;;0,12;wt%;TITR;0,88;wt%;TITR;0,12;wt%;TITR;0,88;wt%;TITR;;;
GROSCAMP-W-241922;;GROSSMAN-CAMP;GROSSMAN, 1991;39,0169;-77,565;0,001;;;CONTINENTAL_RIFT;;;;"AAS; COL; ES; ICP; INAA; TITR; Unknown";WHOLE ROCK;IGNEOUS:VOLCANIC:MAFIC;DIABASE;;52;wt%;COL;2,35;wt%;COL;15,3;wt%;COL;;;;3,46;wt%;Unknown;;;;10,4;wt%;TITR;;;;;;;0,18;wt%;AAS;2,57;wt%;AAS;8,71;wt%;Unknown;;;;3,09;wt%;Unknown;1,19;wt%;AAS;0,2;wt%;COL;;;;;;;;;;0,1;wt%;TITR;1;wt%;TITR;;;;;;;;;;19;ppm;Unknown;42;ppm;Unknown;139;ppm;Unknown;;;;74;ppm;Unknown;;;;;;;0,03;ppm;INAA;;;;;;;;;;;;;;;;;;;;;;;;;;;;;;;;;;;;;;;;;;;;;;;;;;;;;;;;;;;;;;;;;;;;;;;;;;;;;;;;;;;;;;;;;;;;;;;;;;;;;;;;;;;;;;;;;;;;;;;;;18;ppm;INAA;37;ppm;INAA;;;;18;ppm;INAA;5,2;ppm;INAA;1,6;ppm;INAA;;;;1,04;ppm;INAA;;;;;;;;;;;;;3,4;ppm;INAA;0,48;ppm;INAA;0,02;ppm;TITR;0,04;ppm;INAA;0,19;ppm;INAA;;;;;;;;;;;;;;;;;;;;;;;;;11;ppm;INAA;16;ppm;ES;267;ppm;Unknown;;;;;;;;;;;;;42;ppm;Unknown;3,6;ppm;Unknown;1;ppm;INAA;139;ppm;Unknown;;;;;;;4,2;ppm;INAA;;;;;;;;;;;;;;;;;;;;;;14;ppm;ICP;19;ppm;Unknown;;;;;;;;;;15;ppm;Unknown;4,3;ppm;Unknown;54;ppm;Unknown;;;;;;;;;;0,03;ppm;INAA;0,2;ppm;INAA;32;ppm;INAA;;;;265;ppm;Unknown;0,97;ppm;INAA;3,9;ppm;INAA;;;;;;;0,8;ppm;INAA;;;;;;;40;ppm;Unknown;74;ppm;Unknown;151;ppm;Unknown;;;;;;;;;;;;;;;;;;;;;;;;;;;;;;;;;;0,1;wt%;TITR;1;wt%;TITR;0,1;wt%;TITR;1;wt%;TITR;;;
GROSCAMP-W-241923;;GROSSMAN-CAMP;GROSSMAN, 1991;39,0169;-77,565;0,001;;;CONTINENTAL_RIFT;;;;"AAS; COL; ES; ICP; INAA; TITR; Unknown";WHOLE ROCK;IGNEOUS:VOLCANIC:MAFIC;DIABASE;;52,6;wt%;COL;2,01;wt%;COL;16,4;wt%;COL;;;;2,59;wt%;Unknown;;;;7,9;wt%;TITR;;;;;;;0,17;wt%;AAS;2,4;wt%;AAS;9,24;wt%;Unknown;;;;4,74;wt%;Unknown;1,39;wt%;AAS;0,19;wt%;COL;;;;;;;;;;0,07;wt%;TITR;1,3;wt%;TITR;;;;;;;;;;13;ppm;Unknown;31;ppm;Unknown;85;ppm;Unknown;;;;100;ppm;Unknown;4,3;ppm;INAA;;;;0,03;ppm;INAA;;;;;;;;;;;;;;;;;;;;;;;;;;;;;;;;;;;;;;;;;;;;;;;;;;;;;;;;;;;;;;;;;;;;;;;;;;;;;;;;;;;;;;;;;;;;;;;;;;;;;;;;;;;;;;;;;;;;;;;;;17,3;ppm;INAA;36;ppm;INAA;;;;19;ppm;INAA;5,3;ppm;INAA;1,69;ppm;INAA;;;;0,94;ppm;INAA;;;;;;;;;;;;;3,2;ppm;INAA;0,47;ppm;INAA;0,04;ppm;TITR;0,04;ppm;INAA;0,15;ppm;INAA;;;;;;;;;;;;;;;;;;;;;;4,3;ppm;INAA;;;;26;ppm;ES;237;ppm;Unknown;;;;;;;;;;;;;31;ppm;Unknown;3;ppm;Unknown;0,31;ppm;INAA;85;ppm;Unknown;;;;;;;4,2;ppm;INAA;;;;;;;;;;;;;;;;;;;;;;12;ppm;ICP;13;ppm;Unknown;;;;;;;;;;16;ppm;Unknown;4,3;ppm;Unknown;49;ppm;Unknown;;;;;;;;;;0,03;ppm;INAA;0,15;ppm;INAA;29,2;ppm;INAA;;;;300;ppm;Unknown;0,95;ppm;INAA;3,8;ppm;INAA;;;;;;;0,78;ppm;INAA;;;;;;;33;ppm;Unknown;100;ppm;Unknown;139;ppm;Unknown;;;;;;;;;;;;;;;;;;;;;;;;;4,3;ppm;INAA;4,3;ppm;INAA;;;;0,07;wt%;TITR;1,3;wt%;TITR;0,07;wt%;TITR;1,3;wt%;TITR;;;
GROSCAMP-W-241924;;GROSSMAN-CAMP;GROSSMAN, 1991;39,0197;-77,5644;0,001;;;CONTINENTAL_RIFT;;;;"AAS; COL; ES; ICP; INAA; TITR; Unknown";WHOLE ROCK;IGNEOUS:VOLCANIC:MAFIC;DIABASE;;53,1;wt%;COL;2,14;wt%;COL;15,5;wt%;COL;;;;3,46;wt%;Unknown;;;;9,7;wt%;TITR;;;;;;;0,2;wt%;AAS;2,28;wt%;AAS;7;wt%;Unknown;;;;3,23;wt%;Unknown;1,94;wt%;AAS;0,25;wt%;COL;;;;;;;;;;0,17;wt%;TITR;1,2;wt%;TITR;;;;;;;;;;13;ppm;Unknown;38;ppm;Unknown;198;ppm;Unknown;;;;148;ppm;Unknown;1,8;ppm;INAA;;;;0,03;ppm;INAA;;;;;;;;;;;;;;;;;;;;;;;;;;;;;;;;;;;;;;;;;;;;;;;;;;;;;;;;;;;;;;;;;;;;;;;;;;;;;;;;;;;;;;;;;;;;;;;;;;;;;;;;;;;;;;;;;;;;;;;;;22,5;ppm;INAA;47;ppm;INAA;;;;24;ppm;INAA;6,5;ppm;INAA;1,82;ppm;INAA;;;;1,18;ppm;INAA;;;;;;;;;;;;;3,7;ppm;INAA;0,52;ppm;INAA;0,03;ppm;TITR;0,04;ppm;INAA;0,2;ppm;INAA;;;;;;;;;;;;;;;;;;;;;;1,8;ppm;INAA;10;ppm;INAA;19;ppm;ES;380;ppm;Unknown;;;;;;;;;;;;;38;ppm;Unknown;2,7;ppm;Unknown;1,8;ppm;INAA;198;ppm;Unknown;;;;;;;5;ppm;INAA;;;;;;;;;;;;;;;;;;;;;;15;ppm;ICP;13;ppm;Unknown;;;;;;;;;;14;ppm;Unknown;4,9;ppm;Unknown;69;ppm;Unknown;;;;;;;;;;0,03;ppm;INAA;0,41;ppm;INAA;29;ppm;INAA;;;;380;ppm;Unknown;1,1;ppm;INAA;4,7;ppm;INAA;;;;;;;0,85;ppm;INAA;;;;;;;34;ppm;Unknown;148;ppm;Unknown;180;ppm;Unknown;;;;;;;;;;;;;;;;;;;;;;;;;1,8;ppm;INAA;1,8;ppm;INAA;;;;0,17;wt%;TITR;1,2;wt%;TITR;0,17;wt%;TITR;1,2;wt%;TITR;;;
GROSCAMP-W-241925;;GROSSMAN-CAMP;GROSSMAN, 1991;39,0197;-77,5644;0,001;;;CONTINENTAL_RIFT;;;;"AAS; COL; ES; ICP; INAA; TITR; Unknown";WHOLE ROCK;IGNEOUS:VOLCANIC:MAFIC;DIABASE;;52,4;wt%;COL;1,92;wt%;COL;15;wt%;COL;;;;3;wt%;Unknown;;;;9,5;wt%;TITR;;;;;;;0,2;wt%;AAS;2,78;wt%;AAS;6,57;wt%;Unknown;;;;5,03;wt%;Unknown;1,81;wt%;AAS;0,26;wt%;COL;;;;;;;;;;0,17;wt%;TITR;1,5;wt%;TITR;;;;;;;;;;21;ppm;Unknown;37;ppm;Unknown;134;ppm;Unknown;;;;111;ppm;Unknown;2,4;ppm;INAA;;;;0,04;ppm;INAA;;;;;;;;;;;;;;;;;;;;;;;;;;;;;;;;;;;;;;;;;;;;;;;;;;;;;;;;;;;;;;;;;;;;;;;;;;;;;;;;;;;;;;;;;;;;;;;;;;;;;;;;;;;;;;;;;;;;;;;;;20,7;ppm;INAA;43;ppm;INAA;;;;23;ppm;INAA;6;ppm;INAA;1,92;ppm;INAA;;;;1,14;ppm;INAA;;;;;;;;;;;;;3,5;ppm;INAA;0,5;ppm;INAA;0,18;ppm;TITR;0,04;ppm;INAA;0,13;ppm;INAA;;;;;;;;;;;;;;;;;;;;;;2,4;ppm;INAA;;;;18;ppm;ES;350;ppm;Unknown;;;;;;;;;;;;;37;ppm;Unknown;5,1;ppm;Unknown;0,5;ppm;INAA;134;ppm;Unknown;;;;;;;4,7;ppm;INAA;;;;;;;;;;;;;;;;;;;;;;15;ppm;ICP;21;ppm;Unknown;;;;;;;;;;14;ppm;Unknown;4,1;ppm;Unknown;64;ppm;Unknown;;;;;;;;;;0,04;ppm;INAA;0,29;ppm;INAA;31;ppm;INAA;;;;390;ppm;Unknown;1;ppm;INAA;4,4;ppm;INAA;;;;;;;0,91;ppm;INAA;;;;;;;36;ppm;Unknown;111;ppm;Unknown;146;ppm;Unknown;;;;;;;;;;;;;;;;;;;;;;;;;2,4;ppm;INAA;2,4;ppm;INAA;;;;0,17;wt%;TITR;1,5;wt%;TITR;0,17;wt%;TITR;1,5;wt%;TITR;;;
GROSCAMP-W-241926;;GROSSMAN-CAMP;GROSSMAN, 1991;39,0197;-77,5644;0,001;;;CONTINENTAL_RIFT;;;;"AAS; COL; ES; ICP; INAA; TITR; Unknown";WHOLE ROCK;IGNEOUS:VOLCANIC:MAFIC;DIABASE;;53,4;wt%;COL;1,82;wt%;COL;15,6;wt%;COL;;;;3,92;wt%;Unknown;;;;8,3;wt%;TITR;;;;;;;0,16;wt%;AAS;2,66;wt%;AAS;8,53;wt%;Unknown;;;;3,15;wt%;Unknown;1,55;wt%;AAS;0,23;wt%;COL;;;;;;;;;;0,24;wt%;TITR;1,3;wt%;TITR;;;;;;;;;;23;ppm;Unknown;37;ppm;Unknown;183;ppm;Unknown;;;;88;ppm;Unknown;3,3;ppm;INAA;;;;0,04;ppm;INAA;;;;;;;;;;;;;;;;;;;;;;;;;;;;;;;;;;;;;;;;;;;;;;;;;;;;;;;;;;;;;;;;;;;;;;;;;;;;;;;;;;;;;;;;;;;;;;;;;;;;;;;;;;;;;;;;;;;;;;;;;21,5;ppm;INAA;46;ppm;INAA;;;;23;ppm;INAA;6,2;ppm;INAA;1,77;ppm;INAA;;;;1,13;ppm;INAA;;;;;;;;;;;;;3,7;ppm;INAA;0,51;ppm;INAA;0,05;ppm;TITR;0,05;ppm;INAA;0,04;ppm;INAA;;;;;;;;;;;;;;;;;;;;;;3,3;ppm;INAA;6,4;ppm;INAA;18;ppm;ES;320;ppm;Unknown;;;;;;;;;;;;;37;ppm;Unknown;5,7;ppm;Unknown;1,7;ppm;INAA;183;ppm;Unknown;;;;;;;5,1;ppm;INAA;;;;;;;;;;;;;;;;;;;;;;16;ppm;ICP;23;ppm;Unknown;;;;;;;;;;13;ppm;Unknown;4,7;ppm;Unknown;60;ppm;Unknown;;;;;;;;;;0,04;ppm;INAA;0,22;ppm;INAA;28,2;ppm;INAA;;;;286;ppm;Unknown;1,1;ppm;INAA;4,8;ppm;INAA;;;;;;;0,86;ppm;INAA;;;;;;;43;ppm;Unknown;88;ppm;Unknown;182;ppm;Unknown;;;;;;;;;;;;;;;;;;;;;;;;;3,3;ppm;INAA;3,3;ppm;INAA;;;;0,24;wt%;TITR;1,3;wt%;TITR;0,24;wt%;TITR;1,3;wt%;TITR;;;
GROSCAMP-W-241927;;GROSSMAN-CAMP;GROSSMAN, 1991;39,0197;-77,5644;0,001;;;CONTINENTAL_RIFT;;;;"AAS; COL; ICP; INAA; TITR; Unknown";WHOLE ROCK;IGNEOUS:VOLCANIC:MAFIC;DIABASE;;51,1;wt%;COL;1,67;wt%;COL;15,9;wt%;COL;;;;3,4;wt%;Unknown;;;;8,3;wt%;TITR;;;;;;;0,17;wt%;AAS;2,97;wt%;AAS;8,13;wt%;Unknown;;;;4,23;wt%;Unknown;1,91;wt%;AAS;0,21;wt%;COL;;;;;;;;;;0,28;wt%;TITR;1,6;wt%;TITR;;;;;;;;;;26;ppm;Unknown;37;ppm;Unknown;163;ppm;Unknown;;;;117;ppm;Unknown;4,3;ppm;INAA;;;;0,02;ppm;INAA;;;;;;;;;;;;;;;;;;;;;;;;;;;;;;;;;;;;;;;;;;;;;;;;;;;;;;;;;;;;;;;;;;;;;;;;;;;;;;;;;;;;;;;;;;;;;;;;;;;;;;;;;;;;;;;;;;;;;;;;;18,8;ppm;INAA;39;ppm;INAA;;;;20;ppm;INAA;5,4;ppm;INAA;1,75;ppm;INAA;;;;1,01;ppm;INAA;;;;;;;;;;;;;3,3;ppm;INAA;0,47;ppm;INAA;0,13;ppm;TITR;0,06;ppm;INAA;0,03;ppm;INAA;;;;;;;;;;;;;;;;;;;;;;4,3;ppm;INAA;;;;;;;510;ppm;Unknown;;;;;;;;;;;;;37;ppm;Unknown;8,6;ppm;Unknown;1,6;ppm;INAA;163;ppm;Unknown;;;;;;;4,2;ppm;INAA;;;;;;;;;;;;;;;;;;;;;;13;ppm;ICP;26;ppm;Unknown;;;;;;;;;;12;ppm;Unknown;5;ppm;Unknown;83;ppm;Unknown;;;;;;;;;;0,02;ppm;INAA;0,51;ppm;INAA;31;ppm;INAA;;;;410;ppm;Unknown;0,88;ppm;INAA;3,9;ppm;INAA;;;;;;;0,83;ppm;INAA;;;;;;;44;ppm;Unknown;117;ppm;Unknown;168;ppm;Unknown;;;;;;;;;;;;;;;;;;;;;;;;;4,3;ppm;INAA;4,3;ppm;INAA;;;;0,28;wt%;TITR;1,6;wt%;TITR;0,28;wt%;TITR;1,6;wt%;TITR;;;
GROSCAMP-W-241928;;GROSSMAN-CAMP;GROSSMAN, 1991;39,0197;-77,5644;0,001;;;CONTINENTAL_RIFT;;;;"AAS; COL; ES; ICP; INAA; TITR; Unknown";WHOLE ROCK;IGNEOUS:VOLCANIC:MAFIC;DIABASE;;52,6;wt%;COL;1,85;wt%;COL;15,5;wt%;COL;;;;3,54;wt%;Unknown;;;;8,9;wt%;TITR;;;;;;;0,16;wt%;AAS;3,1;wt%;AAS;5,72;wt%;Unknown;;;;5,59;wt%;Unknown;1,57;wt%;AAS;0,23;wt%;COL;;;;;;;;;;0,22;wt%;TITR;2;wt%;TITR;;;;;;;;;;28;ppm;Unknown;39;ppm;Unknown;132;ppm;Unknown;;;;144;ppm;Unknown;2,9;ppm;INAA;;;;0,04;ppm;INAA;;;;;;;;;;;;;;;;;;;;;;;;;;;;;;;;;;;;;;;;;;;;;;;;;;;;;;;;;;;;;;;;;;;;;;;;;;;;;;;;;;;;;;;;;;;;;;;;;;;;;;;;;;;;;;;;;;;;;;;;;18,8;ppm;INAA;40;ppm;INAA;;;;21;ppm;INAA;5,6;ppm;INAA;1,24;ppm;INAA;;;;1,06;ppm;INAA;;;;;;;;;;;;;3,4;ppm;INAA;0,49;ppm;INAA;0,02;ppm;TITR;0,04;ppm;INAA;;;;;;;;;;;;;;;;;;;;;;;;;2,9;ppm;INAA;;;;16;ppm;ES;450;ppm;Unknown;;;;;;;;;;;;;39;ppm;Unknown;9,1;ppm;Unknown;0,59;ppm;INAA;132;ppm;Unknown;;;;;;;4,6;ppm;INAA;;;;;;;;;;;;;;;;;;;;;;15;ppm;ICP;28;ppm;Unknown;;;;;;;;;;12;ppm;Unknown;3,6;ppm;Unknown;60;ppm;Unknown;;;;;;;;;;0,04;ppm;INAA;0,15;ppm;INAA;32;ppm;INAA;;;;390;ppm;Unknown;1;ppm;INAA;4,2;ppm;INAA;;;;;;;0,87;ppm;INAA;;;;;;;43;ppm;Unknown;144;ppm;Unknown;155;ppm;Unknown;;;;;;;;;;;;;;;;;;;;;;;;;2,9;ppm;INAA;2,9;ppm;INAA;;;;0,22;wt%;TITR;2;wt%;TITR;0,22;wt%;TITR;2;wt%;TITR;;;
GROSCAMP-W-241929;;GROSSMAN-CAMP;GROSSMAN, 1991;39,0197;-77,5644;0,001;;;CONTINENTAL_RIFT;;;;"AAS; COL; ES; ICP; INAA; TITR; Unknown";WHOLE ROCK;IGNEOUS:VOLCANIC:MAFIC;DIABASE;;52,7;wt%;COL;1,74;wt%;COL;15,5;wt%;COL;;;;2,96;wt%;Unknown;;;;9,1;wt%;TITR;;;;;;;0,19;wt%;AAS;3,4;wt%;AAS;8,84;wt%;Unknown;;;;3,01;wt%;Unknown;1,4;wt%;AAS;0,2;wt%;COL;;;;;;;;;;0,15;wt%;TITR;0,95;wt%;TITR;;;;;;;;;;23;ppm;Unknown;39;ppm;Unknown;171;ppm;Unknown;;;;80;ppm;Unknown;1,7;ppm;INAA;;;;0,03;ppm;INAA;;;;;;;;;;;;;;;;;;;;;;;;;;;;;;;;;;;;;;;;;;;;;;;;;;;;;;;;;;;;;;;;;;;;;;;;;;;;;;;;;;;;;;;;;;;;;;;;;;;;;;;;;;;;;;;;;;;;;;;;;18,8;ppm;INAA;39;ppm;INAA;;;;20;ppm;INAA;5,4;ppm;INAA;1,65;ppm;INAA;;;;0,98;ppm;INAA;;;;;;;;;;;;;3,1;ppm;INAA;0,45;ppm;INAA;0,05;ppm;TITR;0,03;ppm;INAA;;;;;;;;;;;;;;;;;;;;;;;;;1,7;ppm;INAA;5,1;ppm;INAA;18;ppm;ES;294;ppm;Unknown;;;;;;;;;;;;;39;ppm;Unknown;11;ppm;Unknown;1,4;ppm;INAA;171;ppm;Unknown;;;;;;;4,2;ppm;INAA;;;;;;;;;;;;;;;;;;;;;;13;ppm;ICP;23;ppm;Unknown;;;;;;;;;;10;ppm;Unknown;5,6;ppm;Unknown;51;ppm;Unknown;;;;;;;;;;0,03;ppm;INAA;0,28;ppm;INAA;31;ppm;INAA;;;;296;ppm;Unknown;0,91;ppm;INAA;4;ppm;INAA;;;;;;;0,8;ppm;INAA;;;;;;;36;ppm;Unknown;80;ppm;Unknown;153;ppm;Unknown;;;;;;;;;;;;;;;;;;;;;;;;;1,7;ppm;INAA;1,7;ppm;INAA;;;;0,15;wt%;TITR;0,95;wt%;TITR;0,15;wt%;TITR;0,95;wt%;TITR;;;
GROSCAMP-W-241930;;GROSSMAN-CAMP;GROSSMAN, 1991;39,0197;-77,5644;0,001;;;CONTINENTAL_RIFT;;;;"AAS; COL; ES; ICP; INAA; TITR; Unknown";WHOLE ROCK;IGNEOUS:VOLCANIC:MAFIC;DIABASE;;55,6;wt%;COL;1,25;wt%;COL;14;wt%;COL;;;;3,43;wt%;Unknown;;;;8,4;wt%;TITR;;;;;;;0,18;wt%;AAS;3,91;wt%;AAS;8,98;wt%;Unknown;;;;2,53;wt%;Unknown;1,21;wt%;AAS;0,24;wt%;COL;;;;;;;;;;0,28;wt%;TITR;0,92;wt%;TITR;;;;;;;;;;35;ppm;Unknown;41;ppm;Unknown;70;ppm;Unknown;;;;78;ppm;Unknown;1,1;ppm;INAA;;;;0,02;ppm;INAA;;;;;;;;;;;;;;;;;;;;;;;;;;;;;;;;;;;;;;;;;;;;;;;;;;;;;;;;;;;;;;;;;;;;;;;;;;;;;;;;;;;;;;;;;;;;;;;;;;;;;;;;;;;;;;;;;;;;;;;;;21,2;ppm;INAA;43;ppm;INAA;;;;21;ppm;INAA;5,8;ppm;INAA;1,21;ppm;INAA;;;;1,1;ppm;INAA;;;;;;;;;;;;;3,5;ppm;INAA;0,48;ppm;INAA;0,06;ppm;TITR;0,03;ppm;INAA;;;;;;;;;;;;;;;;;;;;;;;;;1,1;ppm;INAA;;;;13;ppm;ES;281;ppm;Unknown;;;;;;;;;;;;;41;ppm;Unknown;10;ppm;Unknown;0,92;ppm;INAA;70;ppm;Unknown;;;;;;;5,1;ppm;INAA;;;;;;;;;;;;;;;;;;;;;;14;ppm;ICP;35;ppm;Unknown;;;;;;;;;;9,4;ppm;Unknown;1,3;ppm;Unknown;42;ppm;Unknown;;;;;;;;;;0,02;ppm;INAA;0,2;ppm;INAA;33;ppm;INAA;;;;214;ppm;Unknown;1;ppm;INAA;4,8;ppm;INAA;;;;;;;1,1;ppm;INAA;;;;;;;43;ppm;Unknown;78;ppm;Unknown;173;ppm;Unknown;;;;;;;;;;;;;;;;;;;;;;;;;1,1;ppm;INAA;1,1;ppm;INAA;;;;0,28;wt%;TITR;0,92;wt%;TITR;0,28;wt%;TITR;0,92;wt%;TITR;;;