SAMPLE ID;IGSN;EXPEDITION ID;REFERENCES;LATITUDE;LONGITUDE;LOC PREC;MIN ELEVATION;MAX ELEVATION;TECTONIC SETTING;MIN AGE;AGE;MAX AGE;METHOD;ANALYZED MATERIAL;ROCK TYPE;ROCK NAME;MINERAL;SIO2;SIO2 Units;SIO2 Method;TIO2;TIO2 Units;TIO2 Method;AL2O3;AL2O3 Units;AL2O3 Method;CR2O3;CR2O3 Units;CR2O3 Method;FE2O3;FE2O3 Units;FE2O3 Method;FE2O3T;FE2O3T Units;FE2O3T Method;FEO;FEO Units;FEO Method;FEOT;FEOT Units;FEOT Method;NIO;NIO Units;NIO Method;MNO;MNO Units;MNO Method;MGO;MGO Units;MGO Method;CAO;CAO Units;CAO Method;SRO;SRO Units;SRO Method;NA2O;NA2O Units;NA2O Method;K2O;K2O Units;K2O Method;P2O5;P2O5 Units;P2O5 Method;BAO;BAO Units;BAO Method;LOI;LOI Units;LOI Method;H2O;H2O Units;H2O Method;H2O_M;H2O_M Units;H2O_M Method;H2O_P;H2O_P Units;H2O_P Method;SO3;SO3 Units;SO3 Method;COO;COO Units;COO Method;MN;MN Units;MN Method;NI;NI Units;NI Method;CO;CO Units;CO Method;CU;CU Units;CU Method;CD;CD Units;CD Method;ZN;ZN Units;ZN Method;AS;AS Units;AS Method;AG;AG Units;AG Method;S;S Units;S Method;ZRO2;ZRO2 Units;ZRO2 Method;AL;AL Units;AL Method;CA;CA Units;CA Method;SR87_SR86;SR87_SR86 Units;SR87_SR86 Method;SR87_SR86_INI;SR87_SR86_INI Units;SR87_SR86_INI Method;RB87_SR86;RB87_SR86 Units;RB87_SR86 Method;ND143_ND144;ND143_ND144 Units;ND143_ND144 Method;ND143_ND144_INI;ND143_ND144_INI Units;ND143_ND144_INI Method;SM147_ND144;SM147_ND144 Units;SM147_ND144 Method;E_ND;E_ND Units;E_ND Method;E_ND_INI;E_ND_INI Units;E_ND_INI Method;PB204_PB206;PB204_PB206 Units;PB204_PB206 Method;PB206_PB204;PB206_PB204 Units;PB206_PB204 Method;PB206_PB204_INI;PB206_PB204_INI Units;PB206_PB204_INI Method;PB207_PB204;PB207_PB204 Units;PB207_PB204 Method;PB207_PB204_INI;PB207_PB204_INI Units;PB207_PB204_INI Method;PB207_PB206;PB207_PB206 Units;PB207_PB206 Method;PB208_PB204;PB208_PB204 Units;PB208_PB204 Method;PB208_PB204_INI;PB208_PB204_INI Units;PB208_PB204_INI Method;PB208_PB206;PB208_PB206 Units;PB208_PB206 Method;HF176_HF177;HF176_HF177 Units;HF176_HF177 Method;RE187_OS188;RE187_OS188 Units;RE187_OS188 Method;OS187_OS188;OS187_OS188 Units;OS187_OS188 Method;OS187_OS188_INI;OS187_OS188_INI Units;OS187_OS188_INI Method;G_OS;G_OS Units;G_OS Method;G_OS_INI;G_OS_INI Units;G_OS_INI Method;ND143_ND144_INI;ND143_ND144_INI Units;ND143_ND144_INI Method;PB206_PB204_INI;PB206_PB204_INI Units;PB206_PB204_INI Method;PB207_PB204_INI;PB207_PB204_INI Units;PB207_PB204_INI Method;PB208_PB204_INI;PB208_PB204_INI Units;PB208_PB204_INI Method;SR87_SR86_INI;SR87_SR86_INI Units;SR87_SR86_INI Method;HE;HE Units;HE Method;HE3;HE3 Units;HE3 Method;HE3_HE4_R_RA;HE3_HE4_R_RA Units;HE3_HE4_R_RA Method;AR36;AR36 Units;AR36 Method;AR40;AR40 Units;AR40 Method;AR40_AR36;AR40_AR36 Units;AR40_AR36 Method;NE20;NE20 Units;NE20 Method;NE20_NE22;NE20_NE22 Units;NE20_NE22 Method;NE21_NE22;NE21_NE22 Units;NE21_NE22 Method;LA;LA Units;LA Method;CE;CE Units;CE Method;PR;PR Units;PR Method;ND;ND Units;ND Method;SM;SM Units;SM Method;EU;EU Units;EU Method;GD;GD Units;GD Method;TB;TB Units;TB Method;DY;DY Units;DY Method;HO;HO Units;HO Method;ER;ER Units;ER Method;TM;TM Units;TM Method;YB;YB Units;YB Method;LU;LU Units;LU Method;CO2;CO2 Units;CO2 Method;F;F Units;F Method;CL;CL Units;CL Method;U238_PB204;U238_PB204 Units;U238_PB204 Method;TH230_TH232;TH230_TH232 Units;TH230_TH232 Method;RA226_ACTIVITY;RA226_ACTIVITY Units;RA226_ACTIVITY Method;PB210_RA226;PB210_RA226 Units;PB210_RA226 Method;PB210_ACTIVITY;PB210_ACTIVITY Units;PB210_ACTIVITY Method;AG;AG Units;AG Method;AL;AL Units;AL Method;AS;AS Units;AS Method;AU;AU Units;AU Method;B;B Units;B Method;BA;BA Units;BA Method;BE;BE Units;BE Method;BI;BI Units;BI Method;CA;CA Units;CA Method;CD;CD Units;CD Method;CO;CO Units;CO Method;CR;CR Units;CR Method;CS;CS Units;CS Method;CU;CU Units;CU Method;GA;GA Units;GA Method;GER;GER Units;GER Method;HF;HF Units;HF Method;INDIUM;INDIUM Units;INDIUM Method;IR;IR Units;IR Method;K;K Units;K Method;LI;LI Units;LI Method;MN;MN Units;MN Method;MO;MO Units;MO Method;NA;NA Units;NA Method;NB;NB Units;NB Method;NI;NI Units;NI Method;OS;OS Units;OS Method;P;P Units;P Method;PB;PB Units;PB Method;PD;PD Units;PD Method;PT;PT Units;PT Method;RB;RB Units;RB Method;RE;RE Units;RE Method;RH;RH Units;RH Method;RU;RU Units;RU Method;S;S Units;S Method;SB;SB Units;SB Method;SC;SC Units;SC Method;SN;SN Units;SN Method;SR;SR Units;SR Method;TA;TA Units;TA Method;TH;TH Units;TH Method;TI;TI Units;TI Method;TL;TL Units;TL Method;U;U Units;U Method;V;V Units;V Method;W;W Units;W Method;Y;Y Units;Y Method;ZN;ZN Units;ZN Method;ZR;ZR Units;ZR Method;DELTA_O18;DELTA_O18 Units;DELTA_O18 Method;DELTA_C13;DELTA_C13 Units;DELTA_C13 Method;DELTA_MO98;DELTA_MO98 Units;DELTA_MO98 Method;DELTA_ZN66;DELTA_ZN66 Units;DELTA_ZN66 Method;DELTA_ZN68;DELTA_ZN68 Units;DELTA_ZN68 Method;OS188;OS188 Units;OS188 Method;FE3P_FET;FE3P_FET Units;FE3P_FET Method;TI;TI Units;TI Method;AS;AS Units;AS Method;AS;AS Units;AS Method;GER;GER Units;GER Method;H2O_M;H2O_M Units;H2O_M Method;H2O_P;H2O_P Units;H2O_P Method;H2O_M;H2O_M Units;H2O_M Method;H2O_P;H2O_P Units;H2O_P Method;INDIUM;INDIUM Units;INDIUM Method
GROSCAMP-W-241399;;GROSSMAN-CAMP;GROSSMAN, 1991;40,2;-76,8722;0,001;;;CONTINENTAL_RIFT;;;;"AAS; COL; ES; ICP; INAA; TITR; Unknown";WHOLE ROCK;IGNEOUS:VOLCANIC:MAFIC;DIABASE;;53;wt%;COL;1,22;wt%;COL;17,5;wt%;COL;;;;2,3;wt%;Unknown;;;;7,72;wt%;TITR;;;;;;;0,15;wt%;AAS;4,28;wt%;AAS;10,7;wt%;Unknown;;;;2,88;wt%;Unknown;0,73;wt%;AAS;0,14;wt%;COL;;;;;;;;;;0,09;wt%;TITR;0,52;wt%;TITR;;;;;;;;;;34;ppm;Unknown;38;ppm;Unknown;97;ppm;Unknown;;;;65;ppm;Unknown;1,1;ppm;INAA;;;;0,02;ppm;INAA;;;;;;;;;;;;;;;;;;;;;;;;;;;;;;;;;;;;;;;;;;;;;;;;;;;;;;;;;;;;;;;;;;;;;;;;;;;;;;;;;;;;;;;;;;;;;;;;;;;;;;;;;;;;;;;;;;;;;;;;;12,7;ppm;INAA;26;ppm;INAA;;;;14;ppm;INAA;3,8;ppm;INAA;1,22;ppm;INAA;;;;0,68;ppm;INAA;;;;;;;;;;;;;2,25;ppm;INAA;0,33;ppm;INAA;0,01;ppm;TITR;;;;0,02;ppm;INAA;;;;;;;;;;;;;;;;;;;;;;1,1;ppm;INAA;;;;4,2;ppm;ES;197;ppm;Unknown;;;;;;;;;;;;;38;ppm;Unknown;26;ppm;Unknown;0,96;ppm;INAA;97;ppm;Unknown;;;;;;;2,86;ppm;INAA;;;;;;;;;;;;;;;;;;;;;;8,5;ppm;ICP;34;ppm;Unknown;;;;;;;;;;11;ppm;Unknown;8,5;ppm;Unknown;33;ppm;Unknown;;;;;;;;;;0,02;ppm;INAA;0,18;ppm;INAA;30;ppm;INAA;;;;246;ppm;Unknown;0,65;ppm;INAA;2,7;ppm;INAA;;;;;;;0,53;ppm;INAA;;;;;;;30;ppm;Unknown;65;ppm;Unknown;112;ppm;Unknown;;;;;;;;;;;;;;;;;;;;;;;;;1,1;ppm;INAA;1,1;ppm;INAA;;;;0,09;wt%;TITR;0,52;wt%;TITR;0,09;wt%;TITR;0,52;wt%;TITR;;;
GROSCAMP-W-241400;;GROSSMAN-CAMP;GROSSMAN, 1991;40,2;-76,8722;0,001;;;CONTINENTAL_RIFT;;;;"AAS; COL; ES; ICP; INAA; TITR; Unknown";WHOLE ROCK;IGNEOUS:VOLCANIC:MAFIC;DIABASE;;52,2;wt%;COL;1,25;wt%;COL;15,4;wt%;COL;;;;1,84;wt%;Unknown;;;;9,04;wt%;TITR;;;;;;;0,17;wt%;AAS;5,32;wt%;AAS;10,6;wt%;Unknown;;;;2,47;wt%;Unknown;0,73;wt%;AAS;0,14;wt%;COL;;;;;;;;;;0,14;wt%;TITR;0,77;wt%;TITR;;;;;;;;;;57;ppm;Unknown;44;ppm;Unknown;117;ppm;Unknown;;;;71;ppm;Unknown;1,5;ppm;INAA;;;;0,02;ppm;INAA;;;;;;;;;;;;;;;;;;;;;;;;;;;;;;;;;;;;;;;;;;;;;;;;;;;;;;;;;;;;;;;;;;;;;;;;;;;;;;;;;;;;;;;;;;;;;;;;;;;;;;;;;;;;;;;;;;;;;;;;;12;ppm;INAA;25;ppm;INAA;;;;12;ppm;INAA;3,7;ppm;INAA;1,17;ppm;INAA;;;;0,68;ppm;INAA;;;;;;;;;;;;;2,3;ppm;INAA;0,32;ppm;INAA;0,03;ppm;TITR;;;;0,13;ppm;INAA;;;;;;;;;;;;;;;;;;;;;;1,5;ppm;INAA;;;;3;ppm;ES;197;ppm;Unknown;;;;;;;;;;;;;44;ppm;Unknown;30;ppm;Unknown;0,77;ppm;INAA;117;ppm;Unknown;;;;;;;2,54;ppm;INAA;;;;;;;;;;;;;;;;;;;;;;8,1;ppm;ICP;57;ppm;Unknown;;;;;;;;;;12;ppm;Unknown;7,1;ppm;Unknown;22;ppm;Unknown;;;;;;;;;;0,02;ppm;INAA;0,15;ppm;INAA;35;ppm;INAA;;;;204;ppm;Unknown;0,61;ppm;INAA;2,2;ppm;INAA;;;;;;;0,54;ppm;INAA;;;;;;;21;ppm;Unknown;71;ppm;Unknown;98;ppm;Unknown;;;;;;;;;;;;;;;;;;;;;;;;;1,5;ppm;INAA;1,5;ppm;INAA;;;;0,14;wt%;TITR;0,77;wt%;TITR;0,14;wt%;TITR;0,77;wt%;TITR;;;
GROSCAMP-W-241401;;GROSSMAN-CAMP;GROSSMAN, 1991;40,2;-76,8722;0,001;;;CONTINENTAL_RIFT;;;;"AAS; COL; ES; ICP; INAA; TITR; Unknown";WHOLE ROCK;IGNEOUS:VOLCANIC:MAFIC;DIABASE;;53;wt%;COL;1,15;wt%;COL;17,3;wt%;COL;;;;1,69;wt%;Unknown;;;;7,7;wt%;TITR;;;;;;;0,15;wt%;AAS;4,44;wt%;AAS;10,5;wt%;Unknown;;;;2,82;wt%;Unknown;0,8;wt%;AAS;0,14;wt%;COL;;;;;;;;;;0,22;wt%;TITR;0,57;wt%;TITR;;;;;;;;;;46;ppm;Unknown;37;ppm;Unknown;97;ppm;Unknown;;;;77;ppm;Unknown;0,96;ppm;INAA;;;;0,02;ppm;INAA;;;;;;;;;;;;;;;;;;;;;;;;;;;;;;;;;;;;;;;;;;;;;;;;;;;;;;;;;;;;;;;;;;;;;;;;;;;;;;;;;;;;;;;;;;;;;;;;;;;;;;;;;;;;;;;;;;;;;;;;;12,1;ppm;INAA;25;ppm;INAA;;;;14;ppm;INAA;3,7;ppm;INAA;1,23;ppm;INAA;;;;0,57;ppm;INAA;;;;;;;;;;;;;2,1;ppm;INAA;0,29;ppm;INAA;0,03;ppm;TITR;0,01;ppm;INAA;0,04;ppm;INAA;;;;;;;;;;;;;;;;;;;;;;0,96;ppm;INAA;;;;9,3;ppm;ES;195;ppm;Unknown;;;;;;;;;;;;;37;ppm;Unknown;23;ppm;Unknown;0,82;ppm;INAA;97;ppm;Unknown;;;;;;;2,5;ppm;INAA;;;;;;;;;;;;;;;;;;;;;;8,7;ppm;ICP;46;ppm;Unknown;;;;;;;;;;11;ppm;Unknown;8,3;ppm;Unknown;22;ppm;Unknown;;;;0,5;ppm;Unknown;;;;0,02;ppm;INAA;0,14;ppm;INAA;29,2;ppm;INAA;;;;230;ppm;Unknown;0,57;ppm;INAA;2,5;ppm;INAA;;;;;;;0,65;ppm;INAA;;;;;;;24;ppm;Unknown;77;ppm;Unknown;99;ppm;Unknown;;;;;;;;;;;;;;;;;;;;;;;;;0,96;ppm;INAA;0,96;ppm;INAA;;;;0,22;wt%;TITR;0,57;wt%;TITR;0,22;wt%;TITR;0,57;wt%;TITR;;;
GROSCAMP-W-241402;;GROSSMAN-CAMP;GROSSMAN, 1991;40,2;-76,8722;0,001;;;CONTINENTAL_RIFT;;;;"AAS; COL; ES; ICP; INAA; TITR; Unknown";WHOLE ROCK;IGNEOUS:VOLCANIC:MAFIC;DIABASE;;53;wt%;COL;1,18;wt%;COL;15,3;wt%;COL;;;;1,64;wt%;Unknown;;;;8,97;wt%;TITR;;;;;;;0,17;wt%;AAS;5,33;wt%;AAS;10,3;wt%;Unknown;;;;2,43;wt%;Unknown;0,86;wt%;AAS;0,15;wt%;COL;;;;;;;;;;0,13;wt%;TITR;0,74;wt%;TITR;;;;;;;;;;51;ppm;Unknown;43;ppm;Unknown;101;ppm;Unknown;;;;72;ppm;Unknown;1,4;ppm;INAA;;;;0,02;ppm;INAA;;;;;;;;;;;;;;;;;;;;;;;;;;;;;;;;;;;;;;;;;;;;;;;;;;;;;;;;;;;;;;;;;;;;;;;;;;;;;;;;;;;;;;;;;;;;;;;;;;;;;;;;;;;;;;;;;;;;;;;;;13,4;ppm;INAA;27;ppm;INAA;;;;13;ppm;INAA;4;ppm;INAA;1,2;ppm;INAA;;;;0,71;ppm;INAA;;;;;;;;;;;;;2,36;ppm;INAA;0,33;ppm;INAA;0,03;ppm;TITR;0,01;ppm;INAA;0,09;ppm;INAA;;;;;;;;;;;;;;;;;;;;;;1,4;ppm;INAA;;;;21,3;ppm;ES;215;ppm;Unknown;;;;;;;;;;;;;43;ppm;Unknown;41;ppm;Unknown;0,86;ppm;INAA;101;ppm;Unknown;;;;;;;2,8;ppm;INAA;;;;;;;;;;;;;;;;;;;;;;8,8;ppm;ICP;51;ppm;Unknown;;;;;;;;;;12;ppm;Unknown;6,7;ppm;Unknown;25;ppm;Unknown;;;;;;;;;;0,02;ppm;INAA;0,19;ppm;INAA;34;ppm;INAA;;;;202;ppm;Unknown;0,62;ppm;INAA;2,5;ppm;INAA;;;;;;;0,61;ppm;INAA;;;;;;;22;ppm;Unknown;72;ppm;Unknown;100;ppm;Unknown;;;;;;;;;;;;;;;;;;;;;;;;;1,4;ppm;INAA;1,4;ppm;INAA;;;;0,13;wt%;TITR;0,74;wt%;TITR;0,13;wt%;TITR;0,74;wt%;TITR;;;
GROSCAMP-W-241403;;GROSSMAN-CAMP;GROSSMAN, 1991;40,2;-76,8722;0,001;;;CONTINENTAL_RIFT;;;;"AAS; COL; ES; ICP; INAA; TITR; Unknown";WHOLE ROCK;IGNEOUS:VOLCANIC:MAFIC;DIABASE;;52,7;wt%;COL;1,28;wt%;COL;14,9;wt%;COL;;;;1,7;wt%;Unknown;;;;9,2;wt%;TITR;;;;;;;0,18;wt%;AAS;5,82;wt%;AAS;10,4;wt%;Unknown;;;;2,39;wt%;Unknown;0,84;wt%;AAS;0,15;wt%;COL;;;;;;;;;;0,17;wt%;TITR;0,78;wt%;TITR;;;;;;;;;;54;ppm;Unknown;45;ppm;Unknown;99;ppm;Unknown;;;;75;ppm;Unknown;25;ppm;INAA;;;;0,02;ppm;INAA;;;;;;;;;;;;;;;;;;;;;;;;;;;;;;;;;;;;;;;;;;;;;;;;;;;;;;;;;;;;;;;;;;;;;;;;;;;;;;;;;;;;;;;;;;;;;;;;;;;;;;;;;;;;;;;;;;;;;;;;;12,7;ppm;INAA;26,2;ppm;INAA;;;;13;ppm;INAA;3,8;ppm;INAA;1,16;ppm;INAA;;;;0,7;ppm;INAA;;;;;;;;;;;;;2,3;ppm;INAA;0,31;ppm;INAA;0,05;ppm;TITR;0,01;ppm;INAA;0,09;ppm;INAA;;;;;;;;;;;;;;;;;;;;;;25;ppm;INAA;;;;9,3;ppm;ES;197;ppm;Unknown;;;;;;;;;;;;;45;ppm;Unknown;57;ppm;Unknown;0,9;ppm;INAA;99;ppm;Unknown;;;;;;;2,9;ppm;INAA;;;;;;;;;;;;;;;;;;;;;;8,9;ppm;ICP;54;ppm;Unknown;;;;;;;;;;14;ppm;Unknown;8,1;ppm;Unknown;35;ppm;Unknown;;;;0,5;ppm;Unknown;;;;0,02;ppm;INAA;0,11;ppm;INAA;36;ppm;INAA;;;;201;ppm;Unknown;0,58;ppm;INAA;2,6;ppm;INAA;;;;;;;0,5;ppm;INAA;;;;;;;34;ppm;Unknown;75;ppm;Unknown;117;ppm;Unknown;;;;;;;;;;;;;;;;;;;;;;;;;25;ppm;INAA;25;ppm;INAA;;;;0,17;wt%;TITR;0,78;wt%;TITR;0,17;wt%;TITR;0,78;wt%;TITR;;;
GROSCAMP-W-241404;;GROSSMAN-CAMP;GROSSMAN, 1991;40,2;-76,8722;0,001;;;CONTINENTAL_RIFT;;;;"AAS; COL; ES; ICP; INAA; TITR; Unknown";WHOLE ROCK;IGNEOUS:VOLCANIC:MAFIC;DIABASE;;53,2;wt%;COL;1,17;wt%;COL;16;wt%;COL;;;;2,09;wt%;Unknown;;;;8,04;wt%;TITR;;;;;;;0,16;wt%;AAS;5,34;wt%;AAS;10,4;wt%;Unknown;;;;2,48;wt%;Unknown;0,78;wt%;AAS;0,15;wt%;COL;;;;;;;;;;0,23;wt%;TITR;0,48;wt%;TITR;;;;;;;;;;48;ppm;Unknown;41;ppm;Unknown;86;ppm;Unknown;;;;67;ppm;Unknown;1,3;ppm;INAA;;;;0,01;ppm;INAA;;;;;;;;;;;;;;;;;;;;;;;;;;;;;;;;;;;;;;;;;;;;;;;;;;;;;;;;;;;;;;;;;;;;;;;;;;;;;;;;;;;;;;;;;;;;;;;;;;;;;;;;;;;;;;;;;;;;;;;;;12,3;ppm;INAA;25,3;ppm;INAA;;;;12;ppm;INAA;3,7;ppm;INAA;1,22;ppm;INAA;;;;0,68;ppm;INAA;;;;;;;;;;;;;2,2;ppm;INAA;0,31;ppm;INAA;0,02;ppm;TITR;0,01;ppm;INAA;0,03;ppm;INAA;;;;;;;;;;;;;;;;;;;;;;1,3;ppm;INAA;;;;8,1;ppm;ES;197;ppm;Unknown;;;;;;;;;;;;;41;ppm;Unknown;63;ppm;Unknown;0,99;ppm;INAA;86;ppm;Unknown;;;;;;;2,8;ppm;INAA;;;;;;;;;;;;;;;;;;;;;;8,8;ppm;ICP;48;ppm;Unknown;;;;;;;;;;12;ppm;Unknown;9,6;ppm;Unknown;32;ppm;Unknown;;;;0,5;ppm;Unknown;;;;0,01;ppm;INAA;0,14;ppm;INAA;33;ppm;INAA;;;;210;ppm;Unknown;0,61;ppm;INAA;2,6;ppm;INAA;;;;;;;0,6;ppm;INAA;;;;;;;25;ppm;Unknown;67;ppm;Unknown;105;ppm;Unknown;;;;;;;;;;;;;;;;;;;;;;;;;1,3;ppm;INAA;1,3;ppm;INAA;;;;0,23;wt%;TITR;0,48;wt%;TITR;0,23;wt%;TITR;0,48;wt%;TITR;;;
GROSCAMP-W-241405;;GROSSMAN-CAMP;GROSSMAN, 1991;40,2;-76,8722;0,001;;;CONTINENTAL_RIFT;;;;"AAS; COL; ES; ICP; INAA; TITR; Unknown";WHOLE ROCK;IGNEOUS:VOLCANIC:MAFIC;DIABASE;;52,9;wt%;COL;1,14;wt%;COL;15,8;wt%;COL;;;;2,36;wt%;Unknown;;;;8,17;wt%;TITR;;;;;;;0,17;wt%;AAS;5,93;wt%;AAS;10,8;wt%;Unknown;;;;2,35;wt%;Unknown;0,76;wt%;AAS;0,14;wt%;COL;;;;;;;;;;0,15;wt%;TITR;0,48;wt%;TITR;;;;;;;;;;64;ppm;Unknown;45;ppm;Unknown;94;ppm;Unknown;;;;77;ppm;Unknown;0,9;ppm;INAA;;;;0,02;ppm;INAA;;;;;;;;;;;;;;;;;;;;;;;;;;;;;;;;;;;;;;;;;;;;;;;;;;;;;;;;;;;;;;;;;;;;;;;;;;;;;;;;;;;;;;;;;;;;;;;;;;;;;;;;;;;;;;;;;;;;;;;;;11,5;ppm;INAA;24,6;ppm;INAA;;;;11;ppm;INAA;3,5;ppm;INAA;1,1;ppm;INAA;;;;0,65;ppm;INAA;;;;;;;;;;;;;2,1;ppm;INAA;0,3;ppm;INAA;0,02;ppm;TITR;0,01;ppm;INAA;0,04;ppm;INAA;;;;;;;;;;;;;;;;;;;;;;0,9;ppm;INAA;;;;8,7;ppm;ES;183;ppm;Unknown;;;;;;;;;;;;;45;ppm;Unknown;98;ppm;Unknown;0,86;ppm;INAA;94;ppm;Unknown;;;;;;;2,4;ppm;INAA;;;;;;;;;;;;;;;;;;;;;;8,4;ppm;ICP;64;ppm;Unknown;;;;;;;;;;11;ppm;Unknown;10;ppm;Unknown;29;ppm;Unknown;;;;;;;;;;0,02;ppm;INAA;0,16;ppm;INAA;36;ppm;INAA;;;;208;ppm;Unknown;0,51;ppm;INAA;2,5;ppm;INAA;;;;;;;0,51;ppm;INAA;;;;;;;27;ppm;Unknown;77;ppm;Unknown;101;ppm;Unknown;;;;;;;;;;;;;;;;;;;;;;;;;0,9;ppm;INAA;0,9;ppm;INAA;;;;0,15;wt%;TITR;0,48;wt%;TITR;0,15;wt%;TITR;0,48;wt%;TITR;;;
GROSCAMP-W-241406;;GROSSMAN-CAMP;GROSSMAN, 1991;40,2;-76,8722;0,001;;;CONTINENTAL_RIFT;;;;"AAS; COL; ES; ICP; INAA; TITR; Unknown";WHOLE ROCK;IGNEOUS:VOLCANIC:MAFIC;DIABASE;;52,7;wt%;COL;1,08;wt%;COL;15,2;wt%;COL;;;;1,32;wt%;Unknown;;;;8,42;wt%;TITR;;;;;;;0,17;wt%;AAS;6,7;wt%;AAS;11;wt%;Unknown;;;;2,24;wt%;Unknown;0,66;wt%;AAS;0,14;wt%;COL;;;;;;;;;;0,11;wt%;TITR;0,49;wt%;TITR;;;;;;;;;;67;ppm;Unknown;43;ppm;Unknown;84;ppm;Unknown;;;;71;ppm;Unknown;;;;;;;0,01;ppm;INAA;;;;;;;;;;;;;;;;;;;;;;;;;;;;;;;;;;;;;;;;;;;;;;;;;;;;;;;;;;;;;;;;;;;;;;;;;;;;;;;;;;;;;;;;;;;;;;;;;;;;;;;;;;;;;;;;;;;;;;;;;10,4;ppm;INAA;22;ppm;INAA;;;;11;ppm;INAA;3,3;ppm;INAA;1,1;ppm;INAA;;;;0,57;ppm;INAA;;;;;;;;;;;;;2;ppm;INAA;0,28;ppm;INAA;0,02;ppm;TITR;0,01;ppm;INAA;0,02;ppm;INAA;;;;;;;;;;;;;;;;;;;;;;;;;;;;3;ppm;ES;540;ppm;Unknown;;;;;;;;;;;;;43;ppm;Unknown;125;ppm;Unknown;0,79;ppm;INAA;84;ppm;Unknown;;;;;;;2,4;ppm;INAA;;;;;;;;;;;;;;;;;;;;;;7,9;ppm;ICP;67;ppm;Unknown;;;;;;;;;;11;ppm;Unknown;12;ppm;Unknown;18;ppm;Unknown;;;;0,6;ppm;Unknown;;;;0,01;ppm;INAA;0,19;ppm;INAA;35;ppm;INAA;;;;193;ppm;Unknown;0,46;ppm;INAA;2,1;ppm;INAA;;;;;;;0,45;ppm;INAA;;;;;;;21;ppm;Unknown;71;ppm;Unknown;97;ppm;Unknown;;;;;;;;;;;;;;;;;;;;;;;;;;;;;;;;;;0,11;wt%;TITR;0,49;wt%;TITR;0,11;wt%;TITR;0,49;wt%;TITR;;;
GROSCAMP-W-241407;;GROSSMAN-CAMP;GROSSMAN, 1991;40,2;-76,8722;0,001;;;CONTINENTAL_RIFT;;;;"AAS; COL; ES; ICP; INAA; TITR; Unknown";WHOLE ROCK;IGNEOUS:VOLCANIC:MAFIC;DIABASE;;52,9;wt%;COL;1,06;wt%;COL;14,3;wt%;COL;;;;1,67;wt%;Unknown;;;;8,96;wt%;TITR;;;;;;;0,19;wt%;AAS;7,34;wt%;AAS;11,2;wt%;Unknown;;;;2,17;wt%;Unknown;0,58;wt%;AAS;0,1;wt%;COL;;;;;;;;;;0,12;wt%;TITR;0,41;wt%;TITR;;;;;;;;;;70;ppm;Unknown;48;ppm;Unknown;87;ppm;Unknown;;;;70;ppm;Unknown;0,99;ppm;INAA;;;;0,01;ppm;INAA;;;;;;;;;;;;;;;;;;;;;;;;;;;;;;;;;;;;;;;;;;;;;;;;;;;;;;;;;;;;;;;;;;;;;;;;;;;;;;;;;;;;;;;;;;;;;;;;;;;;;;;;;;;;;;;;;;;;;;;;;10,1;ppm;INAA;22;ppm;INAA;;;;14;ppm;INAA;3,2;ppm;INAA;1,04;ppm;INAA;;;;0,6;ppm;INAA;;;;;;;;;;;;;2,1;ppm;INAA;0,27;ppm;INAA;0,02;ppm;TITR;0,02;ppm;INAA;0,02;ppm;INAA;;;;;;;;;;;;;;;;;;;;;;0,99;ppm;INAA;;;;3;ppm;ES;153;ppm;Unknown;;;;;;;;;;;;;48;ppm;Unknown;150;ppm;Unknown;0,72;ppm;INAA;87;ppm;Unknown;;;;;;;2,4;ppm;INAA;;;;;;;;;;;;;;;;;;;;;;7,5;ppm;ICP;70;ppm;Unknown;;;;;;;;;;9,3;ppm;Unknown;12;ppm;Unknown;17;ppm;Unknown;;;;0,6;ppm;Unknown;;;;0,01;ppm;INAA;;;;38;ppm;INAA;;;;185;ppm;Unknown;0,43;ppm;INAA;2,1;ppm;INAA;;;;;;;;;;;;;;;;25;ppm;Unknown;70;ppm;Unknown;93;ppm;Unknown;;;;;;;;;;;;;;;;;;;;;;;;;0,99;ppm;INAA;0,99;ppm;INAA;;;;0,12;wt%;TITR;0,41;wt%;TITR;0,12;wt%;TITR;0,41;wt%;TITR;;;
GROSCAMP-W-241408;;GROSSMAN-CAMP;GROSSMAN, 1991;40,2;-76,8722;0,001;;;CONTINENTAL_RIFT;;;;"AAS; COL; ES; ICP; INAA; TITR; Unknown";WHOLE ROCK;IGNEOUS:VOLCANIC:MAFIC;DIABASE;;52,7;wt%;COL;1,11;wt%;COL;14,9;wt%;COL;;;;1,48;wt%;Unknown;;;;8,46;wt%;TITR;;;;;;;0,17;wt%;AAS;6,77;wt%;AAS;11,2;wt%;Unknown;;;;2,25;wt%;Unknown;0,61;wt%;AAS;0,13;wt%;COL;;;;;;;;;;0,07;wt%;TITR;0,52;wt%;TITR;;;;;;;;;;79;ppm;Unknown;44;ppm;Unknown;82;ppm;Unknown;;;;72;ppm;Unknown;0,8;ppm;INAA;;;;0,02;ppm;INAA;;;;;;;;;;;;;;;;;;;;;;;;;;;;;;;;;;;;;;;;;;;;;;;;;;;;;;;;;;;;;;;;;;;;;;;;;;;;;;;;;;;;;;;;;;;;;;;;;;;;;;;;;;;;;;;;;;;;;;;;;10,9;ppm;INAA;22;ppm;INAA;;;;12;ppm;INAA;3,4;ppm;INAA;1;ppm;INAA;;;;0,63;ppm;INAA;;;;;;;;;;;;;2;ppm;INAA;0,3;ppm;INAA;0,02;ppm;TITR;0,02;ppm;INAA;0,02;ppm;INAA;;;;;;;;;;;;;;;;;;;;;;0,8;ppm;INAA;;;;3;ppm;ES;170;ppm;Unknown;;;;;;;;;;;;;44;ppm;Unknown;145;ppm;Unknown;0,78;ppm;INAA;82;ppm;Unknown;;;;;;;2,4;ppm;INAA;;;;;;;;;;;;;;;;;;;;;;8,1;ppm;ICP;79;ppm;Unknown;;;;;;;;;;11;ppm;Unknown;45;ppm;Unknown;20;ppm;Unknown;;;;0,6;ppm;Unknown;;;;0,02;ppm;INAA;;;;36;ppm;INAA;;;;193;ppm;Unknown;0,55;ppm;INAA;2,3;ppm;INAA;;;;;;;0,67;ppm;INAA;;;;;;;25;ppm;Unknown;72;ppm;Unknown;95;ppm;Unknown;;;;;;;;;;;;;;;;;;;;;;;;;0,8;ppm;INAA;0,8;ppm;INAA;;;;0,07;wt%;TITR;0,52;wt%;TITR;0,07;wt%;TITR;0,52;wt%;TITR;;;
GROSCAMP-W-241409;;GROSSMAN-CAMP;GROSSMAN, 1991;40,2;-76,8722;0,001;;;CONTINENTAL_RIFT;;;;"AAS; COL; ES; ICP; INAA; TITR; Unknown";WHOLE ROCK;IGNEOUS:VOLCANIC:MAFIC;DIABASE;;52,7;wt%;COL;1,09;wt%;COL;15,3;wt%;COL;;;;1,44;wt%;Unknown;;;;8,28;wt%;TITR;;;;;;;0,17;wt%;AAS;6,59;wt%;AAS;11,1;wt%;Unknown;;;;2,22;wt%;Unknown;0,65;wt%;AAS;0,13;wt%;COL;;;;;;;;;;0,07;wt%;TITR;0,52;wt%;TITR;;;;;;;;;;63;ppm;Unknown;43;ppm;Unknown;83;ppm;Unknown;;;;65;ppm;Unknown;1,2;ppm;INAA;;;;0,01;ppm;INAA;;;;;;;;;;;;;;;;;;;;;;;;;;;;;;;;;;;;;;;;;;;;;;;;;;;;;;;;;;;;;;;;;;;;;;;;;;;;;;;;;;;;;;;;;;;;;;;;;;;;;;;;;;;;;;;;;;;;;;;;;10,4;ppm;INAA;23;ppm;INAA;;;;14;ppm;INAA;3,3;ppm;INAA;1,04;ppm;INAA;;;;0,57;ppm;INAA;;;;;;;;;;;;;2;ppm;INAA;0,29;ppm;INAA;0,02;ppm;TITR;0,02;ppm;INAA;0,02;ppm;INAA;;;;;;;;;;;;;;;;;;;;;;1,2;ppm;INAA;;;;3;ppm;ES;166;ppm;Unknown;;;;;;;;;;;;;43;ppm;Unknown;140;ppm;Unknown;0,81;ppm;INAA;83;ppm;Unknown;;;;;;;2,2;ppm;INAA;;;;;;;;;;;;;;;;;;;;;;8,2;ppm;ICP;63;ppm;Unknown;;;;;;;;;;10;ppm;Unknown;13;ppm;Unknown;26;ppm;Unknown;;;;0,6;ppm;Unknown;;;;0,01;ppm;INAA;0,17;ppm;INAA;35;ppm;INAA;;;;199;ppm;Unknown;0,56;ppm;INAA;2,2;ppm;INAA;;;;;;;0,67;ppm;INAA;;;;;;;21;ppm;Unknown;65;ppm;Unknown;100;ppm;Unknown;;;;;;;;;;;;;;;;;;;;;;;;;1,2;ppm;INAA;1,2;ppm;INAA;;;;0,07;wt%;TITR;0,52;wt%;TITR;0,07;wt%;TITR;0,52;wt%;TITR;;;