SAMPLE ID;IGSN;EXPEDITION ID;REFERENCES;LATITUDE;LONGITUDE;LOC PREC;MIN ELEVATION;MAX ELEVATION;TECTONIC SETTING;MIN AGE;AGE;MAX AGE;METHOD;ANALYZED MATERIAL;ROCK TYPE;ROCK NAME;MINERAL;SIO2;SIO2 Units;SIO2 Method;TIO2;TIO2 Units;TIO2 Method;AL2O3;AL2O3 Units;AL2O3 Method;CR2O3;CR2O3 Units;CR2O3 Method;FE2O3;FE2O3 Units;FE2O3 Method;FE2O3T;FE2O3T Units;FE2O3T Method;FEO;FEO Units;FEO Method;FEOT;FEOT Units;FEOT Method;NIO;NIO Units;NIO Method;MNO;MNO Units;MNO Method;MGO;MGO Units;MGO Method;CAO;CAO Units;CAO Method;SRO;SRO Units;SRO Method;NA2O;NA2O Units;NA2O Method;K2O;K2O Units;K2O Method;P2O5;P2O5 Units;P2O5 Method;BAO;BAO Units;BAO Method;LOI;LOI Units;LOI Method;H2O;H2O Units;H2O Method;H2O_M;H2O_M Units;H2O_M Method;H2O_P;H2O_P Units;H2O_P Method;SO3;SO3 Units;SO3 Method;COO;COO Units;COO Method;MN;MN Units;MN Method;NI;NI Units;NI Method;CO;CO Units;CO Method;CU;CU Units;CU Method;CD;CD Units;CD Method;ZN;ZN Units;ZN Method;AS;AS Units;AS Method;AG;AG Units;AG Method;S;S Units;S Method;ZRO2;ZRO2 Units;ZRO2 Method;AL;AL Units;AL Method;CA;CA Units;CA Method;SR87_SR86;SR87_SR86 Units;SR87_SR86 Method;SR87_SR86_INI;SR87_SR86_INI Units;SR87_SR86_INI Method;RB87_SR86;RB87_SR86 Units;RB87_SR86 Method;ND143_ND144;ND143_ND144 Units;ND143_ND144 Method;ND143_ND144_INI;ND143_ND144_INI Units;ND143_ND144_INI Method;SM147_ND144;SM147_ND144 Units;SM147_ND144 Method;E_ND;E_ND Units;E_ND Method;E_ND_INI;E_ND_INI Units;E_ND_INI Method;PB204_PB206;PB204_PB206 Units;PB204_PB206 Method;PB206_PB204;PB206_PB204 Units;PB206_PB204 Method;PB206_PB204_INI;PB206_PB204_INI Units;PB206_PB204_INI Method;PB207_PB204;PB207_PB204 Units;PB207_PB204 Method;PB207_PB204_INI;PB207_PB204_INI Units;PB207_PB204_INI Method;PB207_PB206;PB207_PB206 Units;PB207_PB206 Method;PB208_PB204;PB208_PB204 Units;PB208_PB204 Method;PB208_PB204_INI;PB208_PB204_INI Units;PB208_PB204_INI Method;PB208_PB206;PB208_PB206 Units;PB208_PB206 Method;HF176_HF177;HF176_HF177 Units;HF176_HF177 Method;RE187_OS188;RE187_OS188 Units;RE187_OS188 Method;OS187_OS188;OS187_OS188 Units;OS187_OS188 Method;OS187_OS188_INI;OS187_OS188_INI Units;OS187_OS188_INI Method;G_OS;G_OS Units;G_OS Method;G_OS_INI;G_OS_INI Units;G_OS_INI Method;ND143_ND144_INI;ND143_ND144_INI Units;ND143_ND144_INI Method;PB206_PB204_INI;PB206_PB204_INI Units;PB206_PB204_INI Method;PB207_PB204_INI;PB207_PB204_INI Units;PB207_PB204_INI Method;PB208_PB204_INI;PB208_PB204_INI Units;PB208_PB204_INI Method;SR87_SR86_INI;SR87_SR86_INI Units;SR87_SR86_INI Method;HE;HE Units;HE Method;HE3;HE3 Units;HE3 Method;HE3_HE4_R_RA;HE3_HE4_R_RA Units;HE3_HE4_R_RA Method;AR36;AR36 Units;AR36 Method;AR40;AR40 Units;AR40 Method;AR40_AR36;AR40_AR36 Units;AR40_AR36 Method;NE20;NE20 Units;NE20 Method;NE20_NE22;NE20_NE22 Units;NE20_NE22 Method;NE21_NE22;NE21_NE22 Units;NE21_NE22 Method;LA;LA Units;LA Method;CE;CE Units;CE Method;PR;PR Units;PR Method;ND;ND Units;ND Method;SM;SM Units;SM Method;EU;EU Units;EU Method;GD;GD Units;GD Method;TB;TB Units;TB Method;DY;DY Units;DY Method;HO;HO Units;HO Method;ER;ER Units;ER Method;TM;TM Units;TM Method;YB;YB Units;YB Method;LU;LU Units;LU Method;CO2;CO2 Units;CO2 Method;F;F Units;F Method;CL;CL Units;CL Method;U238_PB204;U238_PB204 Units;U238_PB204 Method;TH230_TH232;TH230_TH232 Units;TH230_TH232 Method;RA226_ACTIVITY;RA226_ACTIVITY Units;RA226_ACTIVITY Method;PB210_RA226;PB210_RA226 Units;PB210_RA226 Method;PB210_ACTIVITY;PB210_ACTIVITY Units;PB210_ACTIVITY Method;AG;AG Units;AG Method;AL;AL Units;AL Method;AS;AS Units;AS Method;AU;AU Units;AU Method;B;B Units;B Method;BA;BA Units;BA Method;BE;BE Units;BE Method;BI;BI Units;BI Method;CA;CA Units;CA Method;CD;CD Units;CD Method;CO;CO Units;CO Method;CR;CR Units;CR Method;CS;CS Units;CS Method;CU;CU Units;CU Method;GA;GA Units;GA Method;GER;GER Units;GER Method;HF;HF Units;HF Method;INDIUM;INDIUM Units;INDIUM Method;IR;IR Units;IR Method;K;K Units;K Method;LI;LI Units;LI Method;MN;MN Units;MN Method;MO;MO Units;MO Method;NA;NA Units;NA Method;NB;NB Units;NB Method;NI;NI Units;NI Method;OS;OS Units;OS Method;P;P Units;P Method;PB;PB Units;PB Method;PD;PD Units;PD Method;PT;PT Units;PT Method;RB;RB Units;RB Method;RE;RE Units;RE Method;RH;RH Units;RH Method;RU;RU Units;RU Method;S;S Units;S Method;SB;SB Units;SB Method;SC;SC Units;SC Method;SN;SN Units;SN Method;SR;SR Units;SR Method;TA;TA Units;TA Method;TH;TH Units;TH Method;TI;TI Units;TI Method;TL;TL Units;TL Method;U;U Units;U Method;V;V Units;V Method;W;W Units;W Method;Y;Y Units;Y Method;ZN;ZN Units;ZN Method;ZR;ZR Units;ZR Method;DELTA_O18;DELTA_O18 Units;DELTA_O18 Method;DELTA_C13;DELTA_C13 Units;DELTA_C13 Method;DELTA_MO98;DELTA_MO98 Units;DELTA_MO98 Method;DELTA_ZN66;DELTA_ZN66 Units;DELTA_ZN66 Method;DELTA_ZN68;DELTA_ZN68 Units;DELTA_ZN68 Method;OS188;OS188 Units;OS188 Method;FE3P_FET;FE3P_FET Units;FE3P_FET Method;TI;TI Units;TI Method;AS;AS Units;AS Method;AS;AS Units;AS Method;GER;GER Units;GER Method;H2O_M;H2O_M Units;H2O_M Method;H2O_P;H2O_P Units;H2O_P Method;H2O_M;H2O_M Units;H2O_M Method;H2O_P;H2O_P Units;H2O_P Method;INDIUM;INDIUM Units;INDIUM Method
GROSCAMP-W-243040;;GROSSMAN-CAMP;GROSSMAN, 1991;36,0667;-78,8931;0,001;;;CONTINENTAL_RIFT;;;;"AAS; COL; ES; IGN; INAA; TITR; Unknown";WHOLE ROCK;IGNEOUS:VOLCANIC:MAFIC;DIABASE;;47,3;wt%;COL;0,59;wt%;COL;16,7;wt%;COL;;;;;;;11,51;wt%;Unknown;;;;;;;;;;0,17;wt%;AAS;10,4;wt%;AAS;11,4;wt%;Unknown;;;;2,08;wt%;Unknown;0,25;wt%;AAS;0,08;wt%;COL;;;;0,52;wt%;IGN;;;;;;;;;;;;;;;;;;;260;ppm;Unknown;67;ppm;Unknown;120;ppm;Unknown;;;;62;ppm;Unknown;;;;;;;0,09;ppm;INAA;;;;;;;;;;;;;;;;;;;;;;;;;;;;;;;;;;;;;;;;;;;;;;;;;;;;;;;;;;;;;;;;;;;;;;;;;;;;;;;;;;;;;;;;;;;;;;;;;;;;;;;;;;;;;;;;;;;;;;;;;4,5;ppm;INAA;10;ppm;INAA;;;;6,5;ppm;INAA;1,84;ppm;INAA;0,7;ppm;INAA;;;;0,52;ppm;INAA;;;;;;;;;;;;;2,6;ppm;INAA;0,35;ppm;INAA;0,11;ppm;TITR;0,01;ppm;INAA;0;ppm;INAA;;;;;;;;;;;;;;;;;;;;;;;;;6,1;ppm;INAA;6,5;ppm;ES;134;ppm;Unknown;;;;;;;;;;;;;67;ppm;Unknown;430;ppm;Unknown;0,55;ppm;INAA;120;ppm;Unknown;;;;;;;1,2;ppm;INAA;;;;;;;;;;;;;;;;;;;;;;;;;260;ppm;Unknown;;;;;;;;;;3,5;ppm;Unknown;11;ppm;Unknown;;;;;;;;;;;;;0,09;ppm;INAA;;;;39;ppm;INAA;;;;159;ppm;Unknown;0,18;ppm;INAA;0,34;ppm;INAA;;;;;;;;;;;;;;;;23;ppm;Unknown;62;ppm;Unknown;52;ppm;Unknown;;;;;;;;;;;;;;;;;;;;;;;;;;;;;;;;;;;;;;;;;;;;;;;;
GROSCAMP-W-243041;;GROSSMAN-CAMP;GROSSMAN, 1991;36,0667;-78,8931;0,001;;;CONTINENTAL_RIFT;;;;"AAS; COL; ES; ICP; INAA; TITR; Unknown";WHOLE ROCK;IGNEOUS:VOLCANIC:MAFIC;DIABASE;;47;wt%;COL;0,64;wt%;COL;16,9;wt%;COL;;;;3,23;wt%;Unknown;;;;7,9;wt%;TITR;;;;;;;0,17;wt%;AAS;10,1;wt%;AAS;11;wt%;Unknown;;;;2,1;wt%;Unknown;0,26;wt%;AAS;0,09;wt%;COL;;;;;;;;;;0,73;wt%;TITR;0,92;wt%;TITR;;;;;;;;;;260;ppm;Unknown;71;ppm;Unknown;108;ppm;Unknown;;;;67;ppm;Unknown;;;;;;;0,04;ppm;INAA;;;;;;;;;;;;;;;;;;;;;;;;;;;;;;;;;;;;;;;;;;;;;;;;;;;;;;;;;;;;;;;;;;;;;;;;;;;;;;;;;;;;;;;;;;;;;;;;;;;;;;;;;;;;;;;;;;;;;;;;;5;ppm;INAA;11;ppm;INAA;;;;6,2;ppm;INAA;1,9;ppm;INAA;0,73;ppm;INAA;;;;0,57;ppm;INAA;;;;;;;;;;;;;2,81;ppm;INAA;0,39;ppm;INAA;0,06;ppm;TITR;0,01;ppm;INAA;0;ppm;INAA;;;;;;;;;;;;;;;;;;;;;;;;;28;ppm;INAA;11,2;ppm;ES;142;ppm;Unknown;;;;;;;;;;;;;71;ppm;Unknown;430;ppm;Unknown;0,75;ppm;INAA;108;ppm;Unknown;;;;;;;1,3;ppm;INAA;;;;;;;;;;;;;;;;;;;;;;2,4;ppm;ICP;260;ppm;Unknown;;;;;;;;;;2,8;ppm;Unknown;5,9;ppm;Unknown;9;ppm;Unknown;;;;;;;;;;0,04;ppm;INAA;;;;39;ppm;INAA;;;;152;ppm;Unknown;0,3;ppm;INAA;0,41;ppm;INAA;;;;;;;;;;;;;;;;25;ppm;Unknown;67;ppm;Unknown;56;ppm;Unknown;;;;;;;;;;;;;;;;;;;;;;;;;;;;;;;;;;0,73;wt%;TITR;0,92;wt%;TITR;0,73;wt%;TITR;0,92;wt%;TITR;;;
GROSCAMP-W-243065;;GROSSMAN-CAMP;GROSSMAN, 1991;40,23;-75,99;0,001;;;CONTINENTAL_RIFT;;;;"AAS; ICP; INAA; Unknown";WHOLE ROCK;IGNEOUS:VOLCANIC:MAFIC;DIABASE;;;;;;;;;;;;;;;;;11,51;wt%;Unknown;;;;;;;;;;;;;;;;10,63;wt%;Unknown;;;;2,3;wt%;Unknown;;;;;;;;;;;;;;;;;;;;;;;;;;;;;;;89;ppm;Unknown;48;ppm;Unknown;95;ppm;Unknown;;;;73;ppm;Unknown;;;;0,035;ppm;AAS;;;;;;;;;;;;;;;;;;;;;;;;;;;;;;;;;;;;;;;;;;;;;;;;;;;;;;;;;;;;;;;;;;;;;;;;;;;;;;;;;;;;;;;;;;;;;;;;;;;;;;;;;;;;;;;;;;;;;;;;;;;;10,3;ppm;INAA;22,6;ppm;INAA;;;;12;ppm;INAA;3,3;ppm;INAA;1,04;ppm;INAA;;;;0,57;ppm;INAA;;;;;;;;;;;;;2;ppm;INAA;0,29;ppm;INAA;;;;;;;;;;;;;;;;;;;;;;;;;0,035;ppm;AAS;;;;;;;4,1;ppm;INAA;;;;135;ppm;Unknown;;;;;;;;;;;;;48;ppm;Unknown;300;ppm;Unknown;0,62;ppm;INAA;95;ppm;Unknown;;;;;;;2,3;ppm;INAA;;;;;;;;;;;;;;;;;;;;;;6;ppm;ICP;89;ppm;Unknown;;;;;;;;;;;;;;;;19;ppm;Unknown;;;;;;;;;;;;;0,14;ppm;INAA;38;ppm;INAA;;;;189;ppm;Unknown;0,54;ppm;INAA;2,2;ppm;INAA;;;;;;;0,41;ppm;INAA;;;;;;;26;ppm;Unknown;73;ppm;Unknown;91;ppm;Unknown;;;;;;;;;;;;;;;;;;;;;;;;;;;;;;;;;;;;;;;;;;;;;;;;
GROSCAMP-W-243042;;GROSSMAN-CAMP;GROSSMAN, 1991;36,0667;-78,8931;0,001;;;CONTINENTAL_RIFT;;;;"AAS; COL; ES; ICP; INAA; TITR; Unknown";WHOLE ROCK;IGNEOUS:VOLCANIC:MAFIC;DIABASE;;47,4;wt%;COL;0,61;wt%;COL;16,4;wt%;COL;;;;2,45;wt%;Unknown;;;;8,6;wt%;TITR;;;;;;;0,17;wt%;AAS;10,9;wt%;AAS;11,1;wt%;Unknown;;;;2,06;wt%;Unknown;0,28;wt%;AAS;0,08;wt%;COL;;;;;;;;;;0,72;wt%;TITR;0,45;wt%;TITR;;;;;;;;;;280;ppm;Unknown;71;ppm;Unknown;109;ppm;Unknown;;;;63;ppm;Unknown;;;;;;;0,09;ppm;INAA;;;;;;;;;;;;;;;;;;;;;;;;;;;;;;;;;;;;;;;;;;;;;;;;;;;;;;;;;;;;;;;;;;;;;;;;;;;;;;;;;;;;;;;;;;;;;;;;;;;;;;;;;;;;;;;;;;;;;;;;;4,8;ppm;INAA;11;ppm;INAA;;;;6;ppm;INAA;1,87;ppm;INAA;0,71;ppm;INAA;;;;0,51;ppm;INAA;;;;;;;;;;;;;2,66;ppm;INAA;0,37;ppm;INAA;0,05;ppm;TITR;0,01;ppm;INAA;0;ppm;INAA;;;;;;;;;;;;;;;;;;;;;;;;;7,2;ppm;INAA;36;ppm;ES;133;ppm;Unknown;;;;;;;;;;;;;71;ppm;Unknown;520;ppm;Unknown;0,48;ppm;INAA;109;ppm;Unknown;;;;;;;1,3;ppm;INAA;;;;;;;;;;;;;;;;;;;;;;2;ppm;ICP;280;ppm;Unknown;;;;;;;;;;2,9;ppm;Unknown;8;ppm;Unknown;4;ppm;Unknown;;;;;;;;;;0,09;ppm;INAA;0,13;ppm;INAA;39;ppm;INAA;;;;142;ppm;Unknown;0,31;ppm;INAA;0,35;ppm;INAA;;;;;;;;;;;;;;;;29;ppm;Unknown;63;ppm;Unknown;54;ppm;Unknown;;;;;;;;;;;;;;;;;;;;;;;;;;;;;;;;;;0,72;wt%;TITR;0,45;wt%;TITR;0,72;wt%;TITR;0,45;wt%;TITR;;;
GROSCAMP-W-243043;;GROSSMAN-CAMP;GROSSMAN, 1991;36,0667;-78,8931;0,001;;;CONTINENTAL_RIFT;;;;"AAS; COL; ES; ICP; INAA; TITR; Unknown";WHOLE ROCK;IGNEOUS:VOLCANIC:MAFIC;DIABASE;;47;wt%;COL;0,59;wt%;COL;16;wt%;COL;;;;2,45;wt%;Unknown;;;;8,6;wt%;TITR;;;;;;;0,17;wt%;AAS;11,9;wt%;AAS;10,8;wt%;Unknown;;;;2,04;wt%;Unknown;0,26;wt%;AAS;0,08;wt%;COL;;;;;;;;;;0,38;wt%;TITR;1,3;wt%;TITR;;;;;;;;;;340;ppm;Unknown;75;ppm;Unknown;119;ppm;Unknown;;;;75;ppm;Unknown;;;;;;;0,09;ppm;INAA;;;;;;;;;;;;;;;;;;;;;;;;;;;;;;;;;;;;;;;;;;;;;;;;;;;;;;;;;;;;;;;;;;;;;;;;;;;;;;;;;;;;;;;;;;;;;;;;;;;;;;;;;;;;;;;;;;;;;;;;;4,6;ppm;INAA;11;ppm;INAA;;;;6,8;ppm;INAA;1,8;ppm;INAA;0,65;ppm;INAA;;;;0,48;ppm;INAA;;;;;;;;;;;;;2,56;ppm;INAA;0,36;ppm;INAA;0,05;ppm;TITR;0,01;ppm;INAA;0;ppm;INAA;;;;;;;;;;;;;;;;;;;;;;;;;;;;22,3;ppm;ES;143;ppm;Unknown;;;;;;;;;;;;;75;ppm;Unknown;650;ppm;Unknown;0,98;ppm;INAA;119;ppm;Unknown;;;;;;;1,3;ppm;INAA;;;;;;;;;;;;;;;;;;;;;;2;ppm;ICP;340;ppm;Unknown;;;;;;;;;;3,9;ppm;Unknown;9,4;ppm;Unknown;2;ppm;Unknown;;;;;;;;;;0,09;ppm;INAA;0,085;ppm;INAA;38;ppm;INAA;;;;148;ppm;Unknown;0,27;ppm;INAA;0,25;ppm;INAA;;;;;;;;;;;;;;;;26;ppm;Unknown;75;ppm;Unknown;56;ppm;Unknown;;;;;;;;;;;;;;;;;;;;;;;;;;;;;;;;;;0,38;wt%;TITR;1,3;wt%;TITR;0,38;wt%;TITR;1,3;wt%;TITR;;;
GROSCAMP-W-243044;;GROSSMAN-CAMP;GROSSMAN, 1991;36,0667;-78,8931;0,001;;;CONTINENTAL_RIFT;;;;"AAS; COL; ES; ICP; INAA; TITR; Unknown";WHOLE ROCK;IGNEOUS:VOLCANIC:MAFIC;DIABASE;;47,2;wt%;COL;0,61;wt%;COL;16,2;wt%;COL;;;;2,89;wt%;Unknown;;;;8,4;wt%;TITR;;;;;;;0,17;wt%;AAS;10,7;wt%;AAS;11,2;wt%;Unknown;;;;2,09;wt%;Unknown;0,24;wt%;AAS;0,1;wt%;COL;;;;;;;;;;0,37;wt%;TITR;1,2;wt%;TITR;;;;;;;;;;270;ppm;Unknown;70;ppm;Unknown;128;ppm;Unknown;;;;74;ppm;Unknown;;;;;;;0,08;ppm;INAA;;;;;;;;;;;;;;;;;;;;;;;;;;;;;;;;;;;;;;;;;;;;;;;;;;;;;;;;;;;;;;;;;;;;;;;;;;;;;;;;;;;;;;;;;;;;;;;;;;;;;;;;;;;;;;;;;;;;;;;;;4,8;ppm;INAA;11;ppm;INAA;;;;6,3;ppm;INAA;1,92;ppm;INAA;0,74;ppm;INAA;;;;0,55;ppm;INAA;;;;;;;;;;;;;2,7;ppm;INAA;0,37;ppm;INAA;0,05;ppm;TITR;0,02;ppm;INAA;0;ppm;INAA;;;;;;;;;;;;;;;;;;;;;;;;;;;;21,4;ppm;ES;136;ppm;Unknown;;;;;;;;;;;;;70;ppm;Unknown;420;ppm;Unknown;0,91;ppm;INAA;128;ppm;Unknown;;;;;;;1,3;ppm;INAA;;;;;;;;;;;;;;;;;;;;;;2,1;ppm;ICP;270;ppm;Unknown;;;;;;;;;;3,1;ppm;Unknown;9,1;ppm;Unknown;;;;;;;;;;;;;0,08;ppm;INAA;;;;41;ppm;INAA;;;;146;ppm;Unknown;0,26;ppm;INAA;0,28;ppm;INAA;;;;;;;;;;;;;;;;21;ppm;Unknown;74;ppm;Unknown;54;ppm;Unknown;;;;;;;;;;;;;;;;;;;;;;;;;;;;;;;;;;0,37;wt%;TITR;1,2;wt%;TITR;0,37;wt%;TITR;1,2;wt%;TITR;;;
GROSCAMP-W-243045;;GROSSMAN-CAMP;GROSSMAN, 1991;36,0667;-78,8931;0,001;;;CONTINENTAL_RIFT;;;;"AAS; COL; ES; ICP; INAA; TITR; Unknown";WHOLE ROCK;IGNEOUS:VOLCANIC:MAFIC;DIABASE;;47,5;wt%;COL;0,66;wt%;COL;16,5;wt%;COL;;;;3,33;wt%;Unknown;;;;8;wt%;TITR;;;;;;;0,18;wt%;AAS;9,52;wt%;AAS;11,2;wt%;Unknown;;;;2,14;wt%;Unknown;0,24;wt%;AAS;0,1;wt%;COL;;;;;;;;;;0,63;wt%;TITR;1,7;wt%;TITR;;;;;;;;;;210;ppm;Unknown;68;ppm;Unknown;135;ppm;Unknown;;;;88;ppm;Unknown;;;;;;;0,12;ppm;INAA;;;;;;;;;;;;;;;;;;;;;;;;;;;;;;;;;;;;;;;;;;;;;;;;;;;;;;;;;;;;;;;;;;;;;;;;;;;;;;;;;;;;;;;;;;;;;;;;;;;;;;;;;;;;;;;;;;;;;;;;;5,1;ppm;INAA;11;ppm;INAA;;;;6,8;ppm;INAA;2,03;ppm;INAA;0,74;ppm;INAA;;;;0,65;ppm;INAA;;;;;;;;;;;;;2,92;ppm;INAA;0,41;ppm;INAA;0,04;ppm;TITR;0,02;ppm;INAA;0;ppm;INAA;;;;;;;;;;;;;;;;;;;;;;;;;5,1;ppm;INAA;25,4;ppm;ES;127;ppm;Unknown;;;;;;;;;;;;;68;ppm;Unknown;299;ppm;Unknown;2,1;ppm;INAA;135;ppm;Unknown;;;;;;;1,3;ppm;INAA;;;;;;;;;;;;;;;;;;;;;;2,4;ppm;ICP;210;ppm;Unknown;;;;;;;;;;3,4;ppm;Unknown;7,1;ppm;Unknown;2;ppm;Unknown;;;;;;;;;;0,12;ppm;INAA;;;;42;ppm;INAA;;;;143;ppm;Unknown;0,26;ppm;INAA;0,35;ppm;INAA;;;;;;;;;;;;;;;;23;ppm;Unknown;88;ppm;Unknown;55;ppm;Unknown;;;;;;;;;;;;;;;;;;;;;;;;;;;;;;;;;;0,63;wt%;TITR;1,7;wt%;TITR;0,63;wt%;TITR;1,7;wt%;TITR;;;
GROSCAMP-W-243046;;GROSSMAN-CAMP;GROSSMAN, 1991;36,0667;-78,8931;0,001;;;CONTINENTAL_RIFT;;;;"AAS; COL; ES; ICP; INAA; TITR; Unknown";WHOLE ROCK;IGNEOUS:VOLCANIC:MAFIC;DIABASE;;47,8;wt%;COL;0,7;wt%;COL;16,4;wt%;COL;;;;3,71;wt%;Unknown;;;;8;wt%;TITR;;;;;;;0,18;wt%;AAS;9,17;wt%;AAS;11,4;wt%;Unknown;;;;2,24;wt%;Unknown;0,26;wt%;AAS;0,11;wt%;COL;;;;;;;;;;0,55;wt%;TITR;0,88;wt%;TITR;;;;;;;;;;190;ppm;Unknown;61;ppm;Unknown;124;ppm;Unknown;;;;67;ppm;Unknown;;;;;;;0,15;ppm;INAA;;;;;;;;;;;;;;;;;;;;;;;;;;;;;;;;;;;;;;;;;;;;;;;;;;;;;;;;;;;;;;;;;;;;;;;;;;;;;;;;;;;;;;;;;;;;;;;;;;;;;;;;;;;;;;;;;;;;;;;;;5,5;ppm;INAA;12;ppm;INAA;;;;7,3;ppm;INAA;2,2;ppm;INAA;0,78;ppm;INAA;;;;0,61;ppm;INAA;;;;;;;;;;;;;3,1;ppm;INAA;0,42;ppm;INAA;0,02;ppm;TITR;0,01;ppm;INAA;0;ppm;INAA;;;;;;;;;;;;;;;;;;;;;;;;;;;;28,2;ppm;ES;117;ppm;Unknown;;;;;;;;;;;;;61;ppm;Unknown;290;ppm;Unknown;1,4;ppm;INAA;124;ppm;Unknown;;;;;;;1,4;ppm;INAA;;;;;;;;;;;;;;;;;;;;;;2,4;ppm;ICP;190;ppm;Unknown;;;;;;;;;;3,2;ppm;Unknown;11;ppm;Unknown;6;ppm;Unknown;;;;;;;;;;0,15;ppm;INAA;;;;45;ppm;INAA;;;;141;ppm;Unknown;0,18;ppm;INAA;0,42;ppm;INAA;;;;;;;;;;;;;;;;24;ppm;Unknown;67;ppm;Unknown;59;ppm;Unknown;;;;;;;;;;;;;;;;;;;;;;;;;;;;;;;;;;0,55;wt%;TITR;0,88;wt%;TITR;0,55;wt%;TITR;0,88;wt%;TITR;;;
GROSCAMP-W-243047;;GROSSMAN-CAMP;GROSSMAN, 1991;36,0667;-78,8931;0,001;;;CONTINENTAL_RIFT;;;;"AAS; COL; ES; ICP; INAA; TITR; Unknown";WHOLE ROCK;IGNEOUS:VOLCANIC:MAFIC;DIABASE;;48;wt%;COL;0,74;wt%;COL;16,4;wt%;COL;;;;3,31;wt%;Unknown;;;;8,2;wt%;TITR;;;;;;;0,19;wt%;AAS;8,32;wt%;AAS;11,5;wt%;Unknown;;;;2,25;wt%;Unknown;0,28;wt%;AAS;0,11;wt%;COL;;;;;;;;;;0,68;wt%;TITR;1,6;wt%;TITR;;;;;;;;;;160;ppm;Unknown;61;ppm;Unknown;144;ppm;Unknown;;;;81;ppm;Unknown;3,5;ppm;INAA;;;;0,08;ppm;INAA;;;;;;;;;;;;;;;;;;;;;;;;;;;;;;;;;;;;;;;;;;;;;;;;;;;;;;;;;;;;;;;;;;;;;;;;;;;;;;;;;;;;;;;;;;;;;;;;;;;;;;;;;;;;;;;;;;;;;;;;;5,9;ppm;INAA;13;ppm;INAA;;;;8,4;ppm;INAA;2,23;ppm;INAA;0,82;ppm;INAA;;;;0,62;ppm;INAA;;;;;;;;;;;;;3,1;ppm;INAA;0,44;ppm;INAA;0,02;ppm;TITR;0,02;ppm;INAA;0;ppm;INAA;;;;;;;;;;;;;;;;;;;;;;3,5;ppm;INAA;8,6;ppm;INAA;29,3;ppm;ES;140;ppm;Unknown;;;;;;;;;;;;;61;ppm;Unknown;278;ppm;Unknown;1,1;ppm;INAA;144;ppm;Unknown;;;;;;;1,4;ppm;INAA;;;;;;;;;;;;;;;;;;;;;;2,4;ppm;ICP;160;ppm;Unknown;;;;;;;;;;2,6;ppm;Unknown;9,8;ppm;Unknown;6;ppm;Unknown;;;;;;;;;;0,08;ppm;INAA;0,25;ppm;INAA;46;ppm;INAA;;;;150;ppm;Unknown;0,27;ppm;INAA;0,46;ppm;INAA;;;;;;;;;;;;;;;;27;ppm;Unknown;81;ppm;Unknown;60;ppm;Unknown;;;;;;;;;;;;;;;;;;;;;;;;;3,5;ppm;INAA;3,5;ppm;INAA;;;;0,68;wt%;TITR;1,6;wt%;TITR;0,68;wt%;TITR;1,6;wt%;TITR;;;
GROSCAMP-W-243048;;GROSSMAN-CAMP;GROSSMAN, 1991;36,25;-78,5;0,001;;;CONTINENTAL_RIFT;;;;"AAS; COL; ES; ICP; INAA; TITR; Unknown";WHOLE ROCK;IGNEOUS:VOLCANIC:MAFIC;DIABASE;;48;wt%;COL;0,48;wt%;COL;13,9;wt%;COL;;;;2,32;wt%;Unknown;;;;8,1;wt%;TITR;;;;;;;0,18;wt%;AAS;13,6;wt%;AAS;9,96;wt%;Unknown;;;;1,71;wt%;Unknown;0,28;wt%;AAS;0,09;wt%;COL;;;;;;;;;;0,63;wt%;TITR;0,96;wt%;TITR;;;;;;;;;;320;ppm;Unknown;78;ppm;Unknown;82;ppm;Unknown;;;;65;ppm;Unknown;;;;;;;0,07;ppm;INAA;;;;;;;;;;;;;;;;;;;;;;;;;;;;;;;;;;;;;;;;;;;;;;;;;;;;;;;;;;;;;;;;;;;;;;;;;;;;;;;;;;;;;;;;;;;;;;;;;;;;;;;;;;;;;;;;;;;;;;;;;4,4;ppm;INAA;9,9;ppm;INAA;;;;6,3;ppm;INAA;1,68;ppm;INAA;0,56;ppm;INAA;;;;0,4;ppm;INAA;;;;;;;;;;;;;2,2;ppm;INAA;0,31;ppm;INAA;0,02;ppm;TITR;0,01;ppm;INAA;0;ppm;INAA;;;;;;;;;;;;;;;;;;;;;;;;;;;;1;ppm;ES;93;ppm;Unknown;;;;;;;;;;;;;78;ppm;Unknown;370;ppm;Unknown;0,35;ppm;INAA;82;ppm;Unknown;;;;;;;1,1;ppm;INAA;;;;;;;;;;;;;;;;;;;;;;2,2;ppm;ICP;320;ppm;Unknown;;;;;;;;;;5,3;ppm;Unknown;9,7;ppm;Unknown;8;ppm;Unknown;;;;;;;;;;0,07;ppm;INAA;;;;36;ppm;INAA;;;;123;ppm;Unknown;0,23;ppm;INAA;0,49;ppm;INAA;;;;;;;;;;;;;;;;28;ppm;Unknown;65;ppm;Unknown;57;ppm;Unknown;;;;;;;;;;;;;;;;;;;;;;;;;;;;;;;;;;0,63;wt%;TITR;0,96;wt%;TITR;0,63;wt%;TITR;0,96;wt%;TITR;;;
GROSCAMP-W-243049;;GROSSMAN-CAMP;GROSSMAN, 1991;36,0667;-78,8931;0,001;;;CONTINENTAL_RIFT;;;;"AAS; COL; ES; ICP; INAA; TITR; Unknown";WHOLE ROCK;IGNEOUS:VOLCANIC:MAFIC;DIABASE;;46,3;wt%;COL;0,46;wt%;COL;17,6;wt%;COL;;;;2,4;wt%;Unknown;;;;8,3;wt%;TITR;;;;;;;0,16;wt%;AAS;11,7;wt%;AAS;10,5;wt%;Unknown;;;;1,94;wt%;Unknown;0,22;wt%;AAS;0,08;wt%;COL;;;;;;;;;;0,52;wt%;TITR;0,94;wt%;TITR;;;;;;;;;;350;ppm;Unknown;72;ppm;Unknown;80;ppm;Unknown;;;;78;ppm;Unknown;;;;;;;0,1;ppm;INAA;;;;;;;;;;;;;;;;;;;;;;;;;;;;;;;;;;;;;;;;;;;;;;;;;;;;;;;;;;;;;;;;;;;;;;;;;;;;;;;;;;;;;;;;;;;;;;;;;;;;;;;;;;;;;;;;;;;;;;;;;4;ppm;INAA;8,3;ppm;INAA;;;;6,4;ppm;INAA;1,51;ppm;INAA;0,6;ppm;INAA;;;;0,41;ppm;INAA;;;;;;;;;;;;;2,1;ppm;INAA;0,31;ppm;INAA;0,03;ppm;TITR;0,01;ppm;INAA;0;ppm;INAA;;;;;;;;;;;;;;;;;;;;;;;;;;;;31;ppm;ES;103;ppm;Unknown;;;;;;;;;;;;;72;ppm;Unknown;236;ppm;Unknown;0,25;ppm;INAA;80;ppm;Unknown;;;;;;;1;ppm;INAA;;;;;;;;;;;;;;;;;;;;;;1,9;ppm;ICP;350;ppm;Unknown;;;;;;;;;;5,1;ppm;Unknown;9,8;ppm;Unknown;14;ppm;Unknown;;;;;;;;;;0,1;ppm;INAA;;;;25,8;ppm;INAA;;;;139;ppm;Unknown;0,27;ppm;INAA;0,29;ppm;INAA;;;;;;;;;;;;;;;;22;ppm;Unknown;78;ppm;Unknown;52;ppm;Unknown;;;;;;;;;;;;;;;;;;;;;;;;;;;;;;;;;;0,52;wt%;TITR;0,94;wt%;TITR;0,52;wt%;TITR;0,94;wt%;TITR;;;
GROSCAMP-W-243050;;GROSSMAN-CAMP;GROSSMAN, 1991;36,0667;-78,8931;0,001;;;CONTINENTAL_RIFT;;;;"AAS; COL; ICP; INAA; TITR; Unknown";WHOLE ROCK;IGNEOUS:VOLCANIC:MAFIC;DIABASE;;46,6;wt%;COL;0,44;wt%;COL;17,9;wt%;COL;;;;2,22;wt%;Unknown;;;;6,7;wt%;TITR;;;;;;;0,14;wt%;AAS;11,3;wt%;AAS;11,9;wt%;Unknown;;;;1,74;wt%;Unknown;0,18;wt%;AAS;0,07;wt%;COL;;;;;;;;;;0,53;wt%;TITR;1,1;wt%;TITR;;;;;;;;;;310;ppm;Unknown;66;ppm;Unknown;98;ppm;Unknown;;;;62;ppm;Unknown;;;;;;;0,03;ppm;INAA;;;;;;;;;;;;;;;;;;;;;;;;;;;;;;;;;;;;;;;;;;;;;;;;;;;;;;;;;;;;;;;;;;;;;;;;;;;;;;;;;;;;;;;;;;;;;;;;;;;;;;;;;;;;;;;;;;;;;;;;;3,2;ppm;INAA;8,3;ppm;INAA;;;;5,3;ppm;INAA;1,3;ppm;INAA;0,52;ppm;INAA;;;;0,37;ppm;INAA;;;;;;;;;;;;;1,8;ppm;INAA;0,26;ppm;INAA;0,06;ppm;TITR;0,01;ppm;INAA;0;ppm;INAA;;;;;;;;;;;;;;;;;;;;;;;;;4,9;ppm;INAA;;;;85;ppm;Unknown;;;;;;;;;;;;;66;ppm;Unknown;530;ppm;Unknown;;;;98;ppm;Unknown;;;;;;;0,81;ppm;INAA;;;;;;;;;;;;;;;;;;;;;;1,5;ppm;ICP;310;ppm;Unknown;;;;;;;;;;5,3;ppm;Unknown;9,3;ppm;Unknown;6;ppm;Unknown;;;;;;;;;;0,03;ppm;INAA;;;;32;ppm;INAA;;;;136;ppm;Unknown;0,25;ppm;INAA;0,26;ppm;INAA;;;;;;;;;;;;;;;;22;ppm;Unknown;62;ppm;Unknown;44;ppm;Unknown;;;;;;;;;;;;;;;;;;;;;;;;;;;;;;;;;;0,53;wt%;TITR;1,1;wt%;TITR;0,53;wt%;TITR;1,1;wt%;TITR;;;