SAMPLE ID;IGSN;EXPEDITION ID;REFERENCES;LATITUDE;LONGITUDE;LOC PREC;MIN ELEVATION;MAX ELEVATION;TECTONIC SETTING;MIN AGE;AGE;MAX AGE;METHOD;ANALYZED MATERIAL;ROCK TYPE;ROCK NAME;MINERAL;SIO2;SIO2 Units;SIO2 Method;TIO2;TIO2 Units;TIO2 Method;AL2O3;AL2O3 Units;AL2O3 Method;CR2O3;CR2O3 Units;CR2O3 Method;FE2O3;FE2O3 Units;FE2O3 Method;FE2O3T;FE2O3T Units;FE2O3T Method;FEO;FEO Units;FEO Method;FEOT;FEOT Units;FEOT Method;NIO;NIO Units;NIO Method;MNO;MNO Units;MNO Method;MGO;MGO Units;MGO Method;CAO;CAO Units;CAO Method;SRO;SRO Units;SRO Method;NA2O;NA2O Units;NA2O Method;K2O;K2O Units;K2O Method;P2O5;P2O5 Units;P2O5 Method;BAO;BAO Units;BAO Method;LOI;LOI Units;LOI Method;H2O;H2O Units;H2O Method;H2O_M;H2O_M Units;H2O_M Method;H2O_P;H2O_P Units;H2O_P Method;SO3;SO3 Units;SO3 Method;COO;COO Units;COO Method;MN;MN Units;MN Method;NI;NI Units;NI Method;CO;CO Units;CO Method;CU;CU Units;CU Method;CD;CD Units;CD Method;ZN;ZN Units;ZN Method;AS;AS Units;AS Method;AG;AG Units;AG Method;S;S Units;S Method;ZRO2;ZRO2 Units;ZRO2 Method;AL;AL Units;AL Method;CA;CA Units;CA Method;SR87_SR86;SR87_SR86 Units;SR87_SR86 Method;SR87_SR86_INI;SR87_SR86_INI Units;SR87_SR86_INI Method;RB87_SR86;RB87_SR86 Units;RB87_SR86 Method;ND143_ND144;ND143_ND144 Units;ND143_ND144 Method;ND143_ND144_INI;ND143_ND144_INI Units;ND143_ND144_INI Method;SM147_ND144;SM147_ND144 Units;SM147_ND144 Method;E_ND;E_ND Units;E_ND Method;E_ND_INI;E_ND_INI Units;E_ND_INI Method;PB204_PB206;PB204_PB206 Units;PB204_PB206 Method;PB206_PB204;PB206_PB204 Units;PB206_PB204 Method;PB206_PB204_INI;PB206_PB204_INI Units;PB206_PB204_INI Method;PB207_PB204;PB207_PB204 Units;PB207_PB204 Method;PB207_PB204_INI;PB207_PB204_INI Units;PB207_PB204_INI Method;PB207_PB206;PB207_PB206 Units;PB207_PB206 Method;PB208_PB204;PB208_PB204 Units;PB208_PB204 Method;PB208_PB204_INI;PB208_PB204_INI Units;PB208_PB204_INI Method;PB208_PB206;PB208_PB206 Units;PB208_PB206 Method;HF176_HF177;HF176_HF177 Units;HF176_HF177 Method;RE187_OS188;RE187_OS188 Units;RE187_OS188 Method;OS187_OS188;OS187_OS188 Units;OS187_OS188 Method;OS187_OS188_INI;OS187_OS188_INI Units;OS187_OS188_INI Method;G_OS;G_OS Units;G_OS Method;G_OS_INI;G_OS_INI Units;G_OS_INI Method;ND143_ND144_INI;ND143_ND144_INI Units;ND143_ND144_INI Method;PB206_PB204_INI;PB206_PB204_INI Units;PB206_PB204_INI Method;PB207_PB204_INI;PB207_PB204_INI Units;PB207_PB204_INI Method;PB208_PB204_INI;PB208_PB204_INI Units;PB208_PB204_INI Method;SR87_SR86_INI;SR87_SR86_INI Units;SR87_SR86_INI Method;HE;HE Units;HE Method;HE3;HE3 Units;HE3 Method;HE3_HE4_R_RA;HE3_HE4_R_RA Units;HE3_HE4_R_RA Method;AR36;AR36 Units;AR36 Method;AR40;AR40 Units;AR40 Method;AR40_AR36;AR40_AR36 Units;AR40_AR36 Method;NE20;NE20 Units;NE20 Method;NE20_NE22;NE20_NE22 Units;NE20_NE22 Method;NE21_NE22;NE21_NE22 Units;NE21_NE22 Method;LA;LA Units;LA Method;CE;CE Units;CE Method;PR;PR Units;PR Method;ND;ND Units;ND Method;SM;SM Units;SM Method;EU;EU Units;EU Method;GD;GD Units;GD Method;TB;TB Units;TB Method;DY;DY Units;DY Method;HO;HO Units;HO Method;ER;ER Units;ER Method;TM;TM Units;TM Method;YB;YB Units;YB Method;LU;LU Units;LU Method;CO2;CO2 Units;CO2 Method;F;F Units;F Method;CL;CL Units;CL Method;U238_PB204;U238_PB204 Units;U238_PB204 Method;TH230_TH232;TH230_TH232 Units;TH230_TH232 Method;RA226_ACTIVITY;RA226_ACTIVITY Units;RA226_ACTIVITY Method;PB210_RA226;PB210_RA226 Units;PB210_RA226 Method;PB210_ACTIVITY;PB210_ACTIVITY Units;PB210_ACTIVITY Method;AG;AG Units;AG Method;AL;AL Units;AL Method;AS;AS Units;AS Method;AU;AU Units;AU Method;B;B Units;B Method;BA;BA Units;BA Method;BE;BE Units;BE Method;BI;BI Units;BI Method;CA;CA Units;CA Method;CD;CD Units;CD Method;CO;CO Units;CO Method;CR;CR Units;CR Method;CS;CS Units;CS Method;CU;CU Units;CU Method;GA;GA Units;GA Method;GER;GER Units;GER Method;HF;HF Units;HF Method;INDIUM;INDIUM Units;INDIUM Method;IR;IR Units;IR Method;K;K Units;K Method;LI;LI Units;LI Method;MN;MN Units;MN Method;MO;MO Units;MO Method;NA;NA Units;NA Method;NB;NB Units;NB Method;NI;NI Units;NI Method;OS;OS Units;OS Method;P;P Units;P Method;PB;PB Units;PB Method;PD;PD Units;PD Method;PT;PT Units;PT Method;RB;RB Units;RB Method;RE;RE Units;RE Method;RH;RH Units;RH Method;RU;RU Units;RU Method;S;S Units;S Method;SB;SB Units;SB Method;SC;SC Units;SC Method;SN;SN Units;SN Method;SR;SR Units;SR Method;TA;TA Units;TA Method;TH;TH Units;TH Method;TI;TI Units;TI Method;TL;TL Units;TL Method;U;U Units;U Method;V;V Units;V Method;W;W Units;W Method;Y;Y Units;Y Method;ZN;ZN Units;ZN Method;ZR;ZR Units;ZR Method;DELTA_O18;DELTA_O18 Units;DELTA_O18 Method;DELTA_C13;DELTA_C13 Units;DELTA_C13 Method;DELTA_MO98;DELTA_MO98 Units;DELTA_MO98 Method;DELTA_ZN66;DELTA_ZN66 Units;DELTA_ZN66 Method;DELTA_ZN68;DELTA_ZN68 Units;DELTA_ZN68 Method;OS188;OS188 Units;OS188 Method;FE3P_FET;FE3P_FET Units;FE3P_FET Method;TI;TI Units;TI Method;AS;AS Units;AS Method;AS;AS Units;AS Method;GER;GER Units;GER Method;H2O_M;H2O_M Units;H2O_M Method;H2O_P;H2O_P Units;H2O_P Method;H2O_M;H2O_M Units;H2O_M Method;H2O_P;H2O_P Units;H2O_P Method;INDIUM;INDIUM Units;INDIUM Method
GROSCAMP-W-232380;;GROSSMAN-CAMP;GROSSMAN, 1991;39,2167;-77,4547;0,001;;;CONTINENTAL_RIFT;;;;"AAS; COL; ES; ICP; INAA; TITR; Unknown";WHOLE ROCK;IGNEOUS:VOLCANIC:MAFIC;DIABASE;;50,2;wt%;COL;0,74;wt%;COL;15,2;wt%;COL;;;;2,3;wt%;Unknown;;;;8,5;wt%;TITR;;;;;;;0,19;wt%;AAS;8;wt%;AAS;11,1;wt%;Unknown;;;;2,16;wt%;Unknown;0,51;wt%;AAS;0,09;wt%;COL;;;;;;;;;;0,22;wt%;TITR;0,42;wt%;TITR;;;;;;;;;;54;ppm;Unknown;48;ppm;Unknown;64;ppm;Unknown;;;;88;ppm;Unknown;;;;;;;0,08;ppm;INAA;;;;;;;;;;;;;;;;;;;;;;;;;;;;;;;;;;;;;;;;;;;;;;;;;;;;;;;;;;;;;;;;;;;;;;;;;;;;;;;;;;;;;;;;;;;;;;;;;;;;;;;;;;;;;;;;;;;;;;;;;5,8;ppm;INAA;12;ppm;INAA;;;;;;;2,2;ppm;INAA;0,71;ppm;INAA;;;;0,49;ppm;INAA;;;;;;;;;;;;;2,2;ppm;INAA;0,33;ppm;INAA;0,04;ppm;TITR;;;;;;;;;;;;;;;;;;;;;;;;;;;;;;;;;;3;ppm;ES;99;ppm;Unknown;;;;;;;;;;;;;48;ppm;Unknown;250;ppm;Unknown;0,56;ppm;INAA;64;ppm;Unknown;;;;;;;1,3;ppm;INAA;;;;;;;;;;;;;;;;;;;;;;2,7;ppm;ICP;54;ppm;Unknown;;;;;;;;;;0,5;ppm;Unknown;1,6;ppm;Unknown;13;ppm;Unknown;;;;;;;;;;0,08;ppm;INAA;;;;43;ppm;INAA;;;;131;ppm;Unknown;0,21;ppm;INAA;1,2;ppm;INAA;;;;;;;;;;;;;;;;27;ppm;Unknown;88;ppm;Unknown;66;ppm;Unknown;;;;;;;;;;;;;;;;;;;;;;;;;;;;;;;;;;0,22;wt%;TITR;0,42;wt%;TITR;0,22;wt%;TITR;0,42;wt%;TITR;;;
GROSCAMP-W-232381;;GROSSMAN-CAMP;GROSSMAN, 1991;39,2167;-77,4547;0,001;;;CONTINENTAL_RIFT;;;;"AAS; COL; ES; ICP; INAA; TITR; Unknown";WHOLE ROCK;IGNEOUS:VOLCANIC:MAFIC;DIABASE;;51,4;wt%;COL;0,81;wt%;COL;15,4;wt%;COL;;;;2,1;wt%;Unknown;;;;8,3;wt%;TITR;;;;;;;0,19;wt%;AAS;6,8;wt%;AAS;10,9;wt%;Unknown;;;;2,29;wt%;Unknown;0,56;wt%;AAS;0,11;wt%;COL;;;;;;;;;;0,27;wt%;TITR;0,93;wt%;TITR;;;;;;;;;;42;ppm;Unknown;46;ppm;Unknown;68;ppm;Unknown;;;;120;ppm;Unknown;;;;;;;0,04;ppm;INAA;;;;;;;;;;;;;;;;;;;;;;;;;;;;;;;;;;;;;;;;;;;;;;;;;;;;;;;;;;;;;;;;;;;;;;;;;;;;;;;;;;;;;;;;;;;;;;;;;;;;;;;;;;;;;;;;;;;;;;;;;8,1;ppm;INAA;17;ppm;INAA;;;;;;;2,8;ppm;INAA;0,87;ppm;INAA;;;;0,58;ppm;INAA;;;;;;;;;;;;;2,5;ppm;INAA;0,45;ppm;INAA;0,02;ppm;TITR;;;;;;;;;;;;;;;;;;;;;;;;;;;;;;;;;;10;ppm;ES;133;ppm;Unknown;;;;;;;;;;;;;46;ppm;Unknown;187;ppm;Unknown;0,64;ppm;INAA;68;ppm;Unknown;;;;;;;1,7;ppm;INAA;;;;;;;;;;;;;;;;;;;;;;3,9;ppm;ICP;42;ppm;Unknown;;;;;;;;;;1,8;ppm;Unknown;2,8;ppm;Unknown;15;ppm;Unknown;;;;;;;;;;0,04;ppm;INAA;;;;44;ppm;INAA;;;;134;ppm;Unknown;0,29;ppm;INAA;2;ppm;INAA;;;;;;;;;;;;;;;;28;ppm;Unknown;120;ppm;Unknown;82;ppm;Unknown;;;;;;;;;;;;;;;;;;;;;;;;;;;;;;;;;;0,27;wt%;TITR;0,93;wt%;TITR;0,27;wt%;TITR;0,93;wt%;TITR;;;
GROSCAMP-W-232382;;GROSSMAN-CAMP;GROSSMAN, 1991;39,2167;-77,4547;0,001;;;CONTINENTAL_RIFT;;;;"AAS; COL; ES; ICP; INAA; TITR; Unknown";WHOLE ROCK;IGNEOUS:VOLCANIC:MAFIC;DIABASE;;51;wt%;COL;0,81;wt%;COL;14,9;wt%;COL;;;;1,9;wt%;Unknown;;;;8,5;wt%;TITR;;;;;;;0,19;wt%;AAS;7,1;wt%;AAS;10,4;wt%;Unknown;;;;2,24;wt%;Unknown;0,53;wt%;AAS;0,1;wt%;COL;;;;;;;;;;0,21;wt%;TITR;0,99;wt%;TITR;;;;;;;;;;58;ppm;Unknown;46;ppm;Unknown;98;ppm;Unknown;;;;100;ppm;Unknown;;;;;;;0,07;ppm;INAA;;;;;;;;;;;;;;;;;;;;;;;;;;;;;;;;;;;;;;;;;;;;;;;;;;;;;;;;;;;;;;;;;;;;;;;;;;;;;;;;;;;;;;;;;;;;;;;;;;;;;;;;;;;;;;;;;;;;;;;;;7,6;ppm;INAA;15;ppm;INAA;;;;;;;2,62;ppm;INAA;0,83;ppm;INAA;;;;0,56;ppm;INAA;;;;;;;;;;;;;2,5;ppm;INAA;0,39;ppm;INAA;0,03;ppm;TITR;;;;;;;;;;;;;;;;;;;;;;;;;;;;;;;;;;8;ppm;ES;129;ppm;Unknown;;;;;;;;;;;;;46;ppm;Unknown;182;ppm;Unknown;1,1;ppm;INAA;98;ppm;Unknown;;;;;;;1,8;ppm;INAA;;;;;;;;;;;;;;;;;;;;;;3,7;ppm;ICP;58;ppm;Unknown;;;;;;;;;;0,8;ppm;Unknown;3,3;ppm;Unknown;19;ppm;Unknown;;;;;;;;;;0,07;ppm;INAA;;;;43;ppm;INAA;;;;137;ppm;Unknown;0,29;ppm;INAA;1,7;ppm;INAA;;;;;;;;;;;;;;;;27;ppm;Unknown;100;ppm;Unknown;78;ppm;Unknown;;;;;;;;;;;;;;;;;;;;;;;;;;;;;;;;;;0,21;wt%;TITR;0,99;wt%;TITR;0,21;wt%;TITR;0,99;wt%;TITR;;;
GROSCAMP-W-232383;;GROSSMAN-CAMP;GROSSMAN, 1991;39,2167;-77,4547;0,001;;;CONTINENTAL_RIFT;;;;"AAS; COL; ES; ICP; INAA; TITR; Unknown";WHOLE ROCK;IGNEOUS:VOLCANIC:MAFIC;DIABASE;;50,9;wt%;COL;0,79;wt%;COL;14,8;wt%;COL;;;;2;wt%;Unknown;;;;9;wt%;TITR;;;;;;;0,2;wt%;AAS;7,4;wt%;AAS;10,4;wt%;Unknown;;;;2,29;wt%;Unknown;0,54;wt%;AAS;0,11;wt%;COL;;;;;;;;;;0,15;wt%;TITR;0,73;wt%;TITR;;;;;;;;;;32;ppm;Unknown;48;ppm;Unknown;65;ppm;Unknown;;;;94;ppm;Unknown;;;;;;;0,07;ppm;INAA;;;;;;;;;;;;;;;;;;;;;;;;;;;;;;;;;;;;;;;;;;;;;;;;;;;;;;;;;;;;;;;;;;;;;;;;;;;;;;;;;;;;;;;;;;;;;;;;;;;;;;;;;;;;;;;;;;;;;;;;;7,8;ppm;INAA;16;ppm;INAA;;;;;;;2,61;ppm;INAA;0,87;ppm;INAA;;;;0,57;ppm;INAA;;;;;;;;;;;;;2,3;ppm;INAA;0,4;ppm;INAA;0,02;ppm;TITR;;;;;;;;;;;;;;;;;;;;;;;;;;;;;;;;;;5;ppm;ES;130;ppm;Unknown;;;;;;;;;;;;;48;ppm;Unknown;189;ppm;Unknown;0,9;ppm;INAA;65;ppm;Unknown;;;;;;;1,7;ppm;INAA;;;;;;;;;;;;;;;;;;;;;;3,8;ppm;ICP;32;ppm;Unknown;;;;;;;;;;1,1;ppm;Unknown;3,3;ppm;Unknown;18;ppm;Unknown;;;;;;;;;;0,07;ppm;INAA;;;;44;ppm;INAA;;;;141;ppm;Unknown;0,28;ppm;INAA;;;;;;;;;;;;;;;;;;;28;ppm;Unknown;94;ppm;Unknown;79;ppm;Unknown;;;;;;;;;;;;;;;;;;;;;;;;;;;;;;;;;;0,15;wt%;TITR;0,73;wt%;TITR;0,15;wt%;TITR;0,73;wt%;TITR;;;
GROSCAMP-W-232384;;GROSSMAN-CAMP;GROSSMAN, 1991;39,2167;-77,4547;0,001;;;CONTINENTAL_RIFT;;;;"AAS; COL; ES; ICP; INAA; TITR; Unknown";WHOLE ROCK;IGNEOUS:VOLCANIC:MAFIC;DIABASE;;50,6;wt%;COL;0,75;wt%;COL;15,3;wt%;COL;;;;1,9;wt%;Unknown;;;;8,4;wt%;TITR;;;;;;;0,19;wt%;AAS;7,5;wt%;AAS;10,6;wt%;Unknown;;;;2,16;wt%;Unknown;0,5;wt%;AAS;0,1;wt%;COL;;;;;;;;;;0,15;wt%;TITR;0,67;wt%;TITR;;;;;;;;;;38;ppm;Unknown;47;ppm;Unknown;57;ppm;Unknown;;;;89;ppm;Unknown;;;;;;;0,06;ppm;INAA;;;;;;;;;;;;;;;;;;;;;;;;;;;;;;;;;;;;;;;;;;;;;;;;;;;;;;;;;;;;;;;;;;;;;;;;;;;;;;;;;;;;;;;;;;;;;;;;;;;;;;;;;;;;;;;;;;;;;;;;;7;ppm;INAA;14;ppm;INAA;;;;;;;2,5;ppm;INAA;0,83;ppm;INAA;;;;0,55;ppm;INAA;;;;;;;;;;;;;2,5;ppm;INAA;0,42;ppm;INAA;0,01;ppm;TITR;;;;;;;;;;;;;;;;;;;;;;;;;;;;;;;;;;5;ppm;ES;110;ppm;Unknown;;;;;;;;;;;;;47;ppm;Unknown;200;ppm;Unknown;0,5;ppm;INAA;57;ppm;Unknown;;;;;;;1,6;ppm;INAA;;;;;;;;;;;;;;;;;;;;;;3,5;ppm;ICP;38;ppm;Unknown;;;;;;;;;;0,6;ppm;Unknown;3,4;ppm;Unknown;9;ppm;Unknown;;;;;;;;;;0,06;ppm;INAA;;;;44;ppm;INAA;;;;137;ppm;Unknown;0,31;ppm;INAA;1,6;ppm;INAA;;;;;;;;;;;;;;;;25;ppm;Unknown;89;ppm;Unknown;73;ppm;Unknown;;;;;;;;;;;;;;;;;;;;;;;;;;;;;;;;;;0,15;wt%;TITR;0,67;wt%;TITR;0,15;wt%;TITR;0,67;wt%;TITR;;;
GROSCAMP-W-232385;;GROSSMAN-CAMP;GROSSMAN, 1991;39,2167;-77,4547;0,001;;;CONTINENTAL_RIFT;;;;"AAS; COL; ES; ICP; INAA; TITR; Unknown";WHOLE ROCK;IGNEOUS:VOLCANIC:MAFIC;DIABASE;;52,3;wt%;COL;0,8;wt%;COL;15,2;wt%;COL;;;;1,5;wt%;Unknown;;;;8,8;wt%;TITR;;;;;;;0,19;wt%;AAS;7,1;wt%;AAS;10,1;wt%;Unknown;;;;2,2;wt%;Unknown;0,67;wt%;AAS;0,11;wt%;COL;;;;;;;;;;0,16;wt%;TITR;0,45;wt%;TITR;;;;;;;;;;38;ppm;Unknown;46;ppm;Unknown;60;ppm;Unknown;;;;89;ppm;Unknown;;;;;;;0,04;ppm;INAA;;;;;;;;;;;;;;;;;;;;;;;;;;;;;;;;;;;;;;;;;;;;;;;;;;;;;;;;;;;;;;;;;;;;;;;;;;;;;;;;;;;;;;;;;;;;;;;;;;;;;;;;;;;;;;;;;;;;;;;;;9,5;ppm;INAA;19,6;ppm;INAA;;;;;;;2,9;ppm;INAA;0,87;ppm;INAA;;;;0,58;ppm;INAA;;;;;;;;;;;;;2,5;ppm;INAA;0,39;ppm;INAA;0,02;ppm;TITR;;;;;;;;;;;;;;;;;;;;;;;;;;;;;;;;;;5;ppm;ES;125;ppm;Unknown;;;;;;;;;;;;;46;ppm;Unknown;186;ppm;Unknown;0,8;ppm;INAA;60;ppm;Unknown;;;;;;;1,9;ppm;INAA;;;;;;;;;;;;;;;;;;;;;;4,1;ppm;ICP;38;ppm;Unknown;;;;;;;;;;0,5;ppm;Unknown;2,4;ppm;Unknown;20;ppm;Unknown;;;;;;;;;;0,04;ppm;INAA;;;;42;ppm;INAA;;;;127;ppm;Unknown;0,32;ppm;INAA;2;ppm;INAA;;;;;;;;;;;;;;;;25;ppm;Unknown;89;ppm;Unknown;85;ppm;Unknown;;;;;;;;;;;;;;;;;;;;;;;;;;;;;;;;;;0,16;wt%;TITR;0,45;wt%;TITR;0,16;wt%;TITR;0,45;wt%;TITR;;;
GROSCAMP-W-232386;;GROSSMAN-CAMP;GROSSMAN, 1991;39,2167;-77,4547;0,001;;;CONTINENTAL_RIFT;;;;"AAS; COL; ES; ICP; INAA; TITR; Unknown";WHOLE ROCK;IGNEOUS:VOLCANIC:MAFIC;DIABASE;;52;wt%;COL;0,75;wt%;COL;14,8;wt%;COL;;;;1,5;wt%;Unknown;;;;8,6;wt%;TITR;;;;;;;0,19;wt%;AAS;7,1;wt%;AAS;10,1;wt%;Unknown;;;;2,29;wt%;Unknown;0,59;wt%;AAS;0,11;wt%;COL;;;;;;;;;;0,25;wt%;TITR;0,51;wt%;TITR;;;;;;;;;;38;ppm;Unknown;45;ppm;Unknown;56;ppm;Unknown;;;;91;ppm;Unknown;;;;;;;0,04;ppm;INAA;;;;;;;;;;;;;;;;;;;;;;;;;;;;;;;;;;;;;;;;;;;;;;;;;;;;;;;;;;;;;;;;;;;;;;;;;;;;;;;;;;;;;;;;;;;;;;;;;;;;;;;;;;;;;;;;;;;;;;;;;10;ppm;INAA;20;ppm;INAA;;;;;;;3;ppm;INAA;0,88;ppm;INAA;;;;0,62;ppm;INAA;;;;;;;;;;;;;2,7;ppm;INAA;0,41;ppm;INAA;0,02;ppm;TITR;;;;;;;;;;;;;;;;;;;;;;;;;;;;;;;;;;7;ppm;ES;145;ppm;Unknown;;;;;;;;;;;;;45;ppm;Unknown;189;ppm;Unknown;0,66;ppm;INAA;56;ppm;Unknown;;;;;;;2,2;ppm;INAA;;;;;;;;;;;;;;;;;;;;;;4,1;ppm;ICP;38;ppm;Unknown;;;;;;;;;;0,7;ppm;Unknown;2,5;ppm;Unknown;16;ppm;Unknown;;;;;;;;;;0,04;ppm;INAA;;;;43;ppm;INAA;;;;131;ppm;Unknown;0,34;ppm;INAA;2,2;ppm;INAA;;;;;;;0,96;ppm;INAA;;;;;;;26;ppm;Unknown;91;ppm;Unknown;89;ppm;Unknown;;;;;;;;;;;;;;;;;;;;;;;;;;;;;;;;;;0,25;wt%;TITR;0,51;wt%;TITR;0,25;wt%;TITR;0,51;wt%;TITR;;;
GROSCAMP-W-232387;;GROSSMAN-CAMP;GROSSMAN, 1991;39,2167;-77,4547;0,001;;;CONTINENTAL_RIFT;;;;"AAS; COL; ES; ICP; INAA; TITR; Unknown";WHOLE ROCK;IGNEOUS:VOLCANIC:MAFIC;DIABASE;;50,6;wt%;COL;0,74;wt%;COL;15,2;wt%;COL;;;;1,8;wt%;Unknown;;;;8,6;wt%;TITR;;;;;;;0,2;wt%;AAS;7,8;wt%;AAS;10,8;wt%;Unknown;;;;2,16;wt%;Unknown;0,38;wt%;AAS;0,09;wt%;COL;;;;;;;;;;0,19;wt%;TITR;0,24;wt%;TITR;;;;;;;;;;47;ppm;Unknown;49;ppm;Unknown;63;ppm;Unknown;;;;96;ppm;Unknown;;;;;;;0,07;ppm;INAA;;;;;;;;;;;;;;;;;;;;;;;;;;;;;;;;;;;;;;;;;;;;;;;;;;;;;;;;;;;;;;;;;;;;;;;;;;;;;;;;;;;;;;;;;;;;;;;;;;;;;;;;;;;;;;;;;;;;;;;;;6,6;ppm;INAA;13;ppm;INAA;;;;;;;2,3;ppm;INAA;0,79;ppm;INAA;;;;0,5;ppm;INAA;;;;;;;;;;;;;2,4;ppm;INAA;0,38;ppm;INAA;0,01;ppm;TITR;;;;;;;;;;;;;;;;;;;;;;;;;;;;;;;;;;4;ppm;ES;111;ppm;Unknown;;;;;;;;;;;;;49;ppm;Unknown;236;ppm;Unknown;0,52;ppm;INAA;63;ppm;Unknown;;;;;;;1,6;ppm;INAA;;;;;;;;;;;;;;;;;;;;;;2,6;ppm;ICP;47;ppm;Unknown;;;;;;;;;;0,5;ppm;Unknown;1,6;ppm;Unknown;10;ppm;Unknown;;;;;;;;;;0,07;ppm;INAA;;;;44;ppm;INAA;;;;130;ppm;Unknown;0,2;ppm;INAA;1,5;ppm;INAA;;;;;;;;;;;;;;;;24;ppm;Unknown;96;ppm;Unknown;66;ppm;Unknown;;;;;;;;;;;;;;;;;;;;;;;;;;;;;;;;;;0,19;wt%;TITR;0,24;wt%;TITR;0,19;wt%;TITR;0,24;wt%;TITR;;;
GROSCAMP-W-232388;;GROSSMAN-CAMP;GROSSMAN, 1991;39,2167;-77,4547;0,001;;;CONTINENTAL_RIFT;;;;"AAS; COL; ES; ICP; INAA; TITR; Unknown";WHOLE ROCK;IGNEOUS:VOLCANIC:MAFIC;DIABASE;;50,8;wt%;COL;0,79;wt%;COL;14,8;wt%;COL;;;;2,5;wt%;Unknown;;;;8,2;wt%;TITR;;;;;;;0,22;wt%;AAS;7;wt%;AAS;10,1;wt%;Unknown;;;;2,4;wt%;Unknown;0,48;wt%;AAS;0,11;wt%;COL;;;;;;;;;;0,25;wt%;TITR;1,2;wt%;TITR;;;;;;;;;;38;ppm;Unknown;44;ppm;Unknown;350;ppm;Unknown;;;;90;ppm;Unknown;;;;;;;0,06;ppm;INAA;;;;;;;;;;;;;;;;;;;;;;;;;;;;;;;;;;;;;;;;;;;;;;;;;;;;;;;;;;;;;;;;;;;;;;;;;;;;;;;;;;;;;;;;;;;;;;;;;;;;;;;;;;;;;;;;;;;;;;;;;7,8;ppm;INAA;16;ppm;INAA;;;;;;;2,68;ppm;INAA;0,84;ppm;INAA;;;;0,56;ppm;INAA;;;;;;;;;;;;;2,6;ppm;INAA;0,39;ppm;INAA;0,02;ppm;TITR;;;;;;;;;;;;;;;;;;;;;;;;;;;;;;;;;;7;ppm;ES;129;ppm;Unknown;;;;;;;;;;;;;44;ppm;Unknown;183;ppm;Unknown;0,67;ppm;INAA;350;ppm;Unknown;;;;;;;1,8;ppm;INAA;;;;;;;;;;;;;;;;;;;;;;3,4;ppm;ICP;38;ppm;Unknown;;;;;;;;;;1;ppm;Unknown;2,6;ppm;Unknown;18;ppm;Unknown;;;;;;;;;;0,06;ppm;INAA;;;;42;ppm;INAA;;;;147;ppm;Unknown;0,28;ppm;INAA;1,9;ppm;INAA;;;;;;;;;;;;;;;;27;ppm;Unknown;90;ppm;Unknown;81;ppm;Unknown;;;;;;;;;;;;;;;;;;;;;;;;;;;;;;;;;;0,25;wt%;TITR;1,2;wt%;TITR;0,25;wt%;TITR;1,2;wt%;TITR;;;
GROSCAMP-W-232389;;GROSSMAN-CAMP;GROSSMAN, 1991;39,2167;-77,4547;0,001;;;CONTINENTAL_RIFT;;;;"AAS; COL; ES; ICP; INAA; TITR; Unknown";WHOLE ROCK;IGNEOUS:VOLCANIC:MAFIC;DIABASE;;50,9;wt%;COL;0,77;wt%;COL;15;wt%;COL;;;;2,2;wt%;Unknown;;;;8,6;wt%;TITR;;;;;;;0,19;wt%;AAS;7,5;wt%;AAS;10,6;wt%;Unknown;;;;2,16;wt%;Unknown;0,48;wt%;AAS;0,09;wt%;COL;;;;;;;;;;0,15;wt%;TITR;0,48;wt%;TITR;;;;;;;;;;65;ppm;Unknown;47;ppm;Unknown;60;ppm;Unknown;;;;93;ppm;Unknown;;;;;;;0,06;ppm;INAA;;;;;;;;;;;;;;;;;;;;;;;;;;;;;;;;;;;;;;;;;;;;;;;;;;;;;;;;;;;;;;;;;;;;;;;;;;;;;;;;;;;;;;;;;;;;;;;;;;;;;;;;;;;;;;;;;;;;;;;;;7,3;ppm;INAA;15;ppm;INAA;;;;;;;2,5;ppm;INAA;0,82;ppm;INAA;;;;0,52;ppm;INAA;;;;;;;;;;;;;2,3;ppm;INAA;0,39;ppm;INAA;0,03;ppm;TITR;;;;;;;;;;;;;;;;;;;;;;;;;;;;;;;;;;4;ppm;ES;110;ppm;Unknown;;;;;;;;;;;;;47;ppm;Unknown;210;ppm;Unknown;0,64;ppm;INAA;60;ppm;Unknown;;;;;;;1,8;ppm;INAA;;;;;;;;;;;;;;;;;;;;;;3,5;ppm;ICP;65;ppm;Unknown;;;;;;;;;;0,8;ppm;Unknown;2,8;ppm;Unknown;20;ppm;Unknown;;;;;;;;;;0,06;ppm;INAA;;;;44;ppm;INAA;;;;136;ppm;Unknown;0,27;ppm;INAA;1,6;ppm;INAA;;;;;;;;;;;;;;;;31;ppm;Unknown;93;ppm;Unknown;83;ppm;Unknown;;;;;;;;;;;;;;;;;;;;;;;;;;;;;;;;;;0,15;wt%;TITR;0,48;wt%;TITR;0,15;wt%;TITR;0,48;wt%;TITR;;;
GROSCAMP-W-232390;;GROSSMAN-CAMP;GROSSMAN, 1991;39,2167;-77,4547;0,001;;;CONTINENTAL_RIFT;;;;"AAS; COL; ES; ICP; INAA; TITR; Unknown";WHOLE ROCK;IGNEOUS:VOLCANIC:MAFIC;DIABASE;;50,9;wt%;COL;0,81;wt%;COL;15,2;wt%;COL;;;;2,2;wt%;Unknown;;;;8,9;wt%;TITR;;;;;;;0,2;wt%;AAS;7,5;wt%;AAS;10,7;wt%;Unknown;;;;2,29;wt%;Unknown;0,45;wt%;AAS;0,11;wt%;COL;;;;;;;;;;0,17;wt%;TITR;0,49;wt%;TITR;;;;;;;;;;53;ppm;Unknown;46;ppm;Unknown;62;ppm;Unknown;;;;86;ppm;Unknown;;;;;;;0,06;ppm;INAA;;;;;;;;;;;;;;;;;;;;;;;;;;;;;;;;;;;;;;;;;;;;;;;;;;;;;;;;;;;;;;;;;;;;;;;;;;;;;;;;;;;;;;;;;;;;;;;;;;;;;;;;;;;;;;;;;;;;;;;;;7,1;ppm;INAA;14;ppm;INAA;;;;;;;2,6;ppm;INAA;0,83;ppm;INAA;;;;0,55;ppm;INAA;;;;;;;;;;;;;2,4;ppm;INAA;0,38;ppm;INAA;0,03;ppm;TITR;;;;;;;;;;;;;;;;;;;;;;;;;;;;;;;;;;3;ppm;ES;114;ppm;Unknown;;;;;;;;;;;;;46;ppm;Unknown;180;ppm;Unknown;0,78;ppm;INAA;62;ppm;Unknown;;;;;;;1,7;ppm;INAA;;;;;;;;;;;;;;;;;;;;;;3,3;ppm;ICP;53;ppm;Unknown;;;;;;;;;;0,7;ppm;Unknown;2,7;ppm;Unknown;15;ppm;Unknown;;;;;;;;;;0,06;ppm;INAA;;;;42;ppm;INAA;;;;137;ppm;Unknown;0,26;ppm;INAA;1,5;ppm;INAA;;;;;;;;;;;;;;;;27;ppm;Unknown;86;ppm;Unknown;82;ppm;Unknown;;;;;;;;;;;;;;;;;;;;;;;;;;;;;;;;;;0,17;wt%;TITR;0,49;wt%;TITR;0,17;wt%;TITR;0,49;wt%;TITR;;;
GROSCAMP-W-232391;;GROSSMAN-CAMP;GROSSMAN, 1991;39,2167;-77,4547;0,001;;;CONTINENTAL_RIFT;;;;"AAS; COL; ES; ICP; INAA; TITR; Unknown";WHOLE ROCK;IGNEOUS:VOLCANIC:MAFIC;DIABASE;;50,6;wt%;COL;0,74;wt%;COL;15,4;wt%;COL;;;;2,4;wt%;Unknown;;;;8,3;wt%;TITR;;;;;;;0,19;wt%;AAS;7,8;wt%;AAS;10,8;wt%;Unknown;;;;2,16;wt%;Unknown;0,56;wt%;AAS;0,09;wt%;COL;;;;;;;;;;0,09;wt%;TITR;0,62;wt%;TITR;;;;;;;;;;57;ppm;Unknown;49;ppm;Unknown;65;ppm;Unknown;;;;93;ppm;Unknown;;;;;;;0,05;ppm;INAA;;;;;;;;;;;;;;;;;;;;;;;;;;;;;;;;;;;;;;;;;;;;;;;;;;;;;;;;;;;;;;;;;;;;;;;;;;;;;;;;;;;;;;;;;;;;;;;;;;;;;;;;;;;;;;;;;;;;;;;;;5,7;ppm;INAA;12;ppm;INAA;;;;;;;2,2;ppm;INAA;0,76;ppm;INAA;;;;0,56;ppm;INAA;;;;;;;;;;;;;2,1;ppm;INAA;0,35;ppm;INAA;0,01;ppm;TITR;;;;;;;;;;;;;;;;;;;;;;;;;;;;;;;;;;4;ppm;ES;133;ppm;Unknown;;;;;;;;;;;;;49;ppm;Unknown;240;ppm;Unknown;0,82;ppm;INAA;65;ppm;Unknown;;;;;;;1,4;ppm;INAA;;;;;;;;;;;;;;;;;;;;;;2,5;ppm;ICP;57;ppm;Unknown;;;;;;;;;;;;;1,3;ppm;Unknown;11;ppm;Unknown;;;;;;;;;;0,05;ppm;INAA;;;;44;ppm;INAA;;;;134;ppm;Unknown;0,22;ppm;INAA;1,4;ppm;INAA;;;;;;;;;;;;;;;;25;ppm;Unknown;93;ppm;Unknown;64;ppm;Unknown;;;;;;;;;;;;;;;;;;;;;;;;;;;;;;;;;;0,09;wt%;TITR;0,62;wt%;TITR;0,09;wt%;TITR;0,62;wt%;TITR;;;