SAMPLE ID;IGSN;EXPEDITION ID;REFERENCES;LATITUDE;LONGITUDE;LOC PREC;MIN ELEVATION;MAX ELEVATION;TECTONIC SETTING;MIN AGE;AGE;MAX AGE;METHOD;ANALYZED MATERIAL;ROCK TYPE;ROCK NAME;MINERAL;SIO2;SIO2 Units;SIO2 Method;TIO2;TIO2 Units;TIO2 Method;AL2O3;AL2O3 Units;AL2O3 Method;CR2O3;CR2O3 Units;CR2O3 Method;FE2O3;FE2O3 Units;FE2O3 Method;FE2O3T;FE2O3T Units;FE2O3T Method;FEO;FEO Units;FEO Method;FEOT;FEOT Units;FEOT Method;NIO;NIO Units;NIO Method;MNO;MNO Units;MNO Method;MGO;MGO Units;MGO Method;CAO;CAO Units;CAO Method;SRO;SRO Units;SRO Method;NA2O;NA2O Units;NA2O Method;K2O;K2O Units;K2O Method;P2O5;P2O5 Units;P2O5 Method;BAO;BAO Units;BAO Method;LOI;LOI Units;LOI Method;H2O;H2O Units;H2O Method;H2O_M;H2O_M Units;H2O_M Method;H2O_P;H2O_P Units;H2O_P Method;SO3;SO3 Units;SO3 Method;COO;COO Units;COO Method;MN;MN Units;MN Method;NI;NI Units;NI Method;CO;CO Units;CO Method;CU;CU Units;CU Method;CD;CD Units;CD Method;ZN;ZN Units;ZN Method;AS;AS Units;AS Method;AG;AG Units;AG Method;S;S Units;S Method;ZRO2;ZRO2 Units;ZRO2 Method;AL;AL Units;AL Method;CA;CA Units;CA Method;SR87_SR86;SR87_SR86 Units;SR87_SR86 Method;SR87_SR86_INI;SR87_SR86_INI Units;SR87_SR86_INI Method;RB87_SR86;RB87_SR86 Units;RB87_SR86 Method;ND143_ND144;ND143_ND144 Units;ND143_ND144 Method;ND143_ND144_INI;ND143_ND144_INI Units;ND143_ND144_INI Method;SM147_ND144;SM147_ND144 Units;SM147_ND144 Method;E_ND;E_ND Units;E_ND Method;E_ND_INI;E_ND_INI Units;E_ND_INI Method;PB204_PB206;PB204_PB206 Units;PB204_PB206 Method;PB206_PB204;PB206_PB204 Units;PB206_PB204 Method;PB206_PB204_INI;PB206_PB204_INI Units;PB206_PB204_INI Method;PB207_PB204;PB207_PB204 Units;PB207_PB204 Method;PB207_PB204_INI;PB207_PB204_INI Units;PB207_PB204_INI Method;PB207_PB206;PB207_PB206 Units;PB207_PB206 Method;PB208_PB204;PB208_PB204 Units;PB208_PB204 Method;PB208_PB204_INI;PB208_PB204_INI Units;PB208_PB204_INI Method;PB208_PB206;PB208_PB206 Units;PB208_PB206 Method;HF176_HF177;HF176_HF177 Units;HF176_HF177 Method;RE187_OS188;RE187_OS188 Units;RE187_OS188 Method;OS187_OS188;OS187_OS188 Units;OS187_OS188 Method;OS187_OS188_INI;OS187_OS188_INI Units;OS187_OS188_INI Method;G_OS;G_OS Units;G_OS Method;G_OS_INI;G_OS_INI Units;G_OS_INI Method;ND143_ND144_INI;ND143_ND144_INI Units;ND143_ND144_INI Method;PB206_PB204_INI;PB206_PB204_INI Units;PB206_PB204_INI Method;PB207_PB204_INI;PB207_PB204_INI Units;PB207_PB204_INI Method;PB208_PB204_INI;PB208_PB204_INI Units;PB208_PB204_INI Method;SR87_SR86_INI;SR87_SR86_INI Units;SR87_SR86_INI Method;HE;HE Units;HE Method;HE3;HE3 Units;HE3 Method;HE3_HE4_R_RA;HE3_HE4_R_RA Units;HE3_HE4_R_RA Method;AR36;AR36 Units;AR36 Method;AR40;AR40 Units;AR40 Method;AR40_AR36;AR40_AR36 Units;AR40_AR36 Method;NE20;NE20 Units;NE20 Method;NE20_NE22;NE20_NE22 Units;NE20_NE22 Method;NE21_NE22;NE21_NE22 Units;NE21_NE22 Method;LA;LA Units;LA Method;CE;CE Units;CE Method;PR;PR Units;PR Method;ND;ND Units;ND Method;SM;SM Units;SM Method;EU;EU Units;EU Method;GD;GD Units;GD Method;TB;TB Units;TB Method;DY;DY Units;DY Method;HO;HO Units;HO Method;ER;ER Units;ER Method;TM;TM Units;TM Method;YB;YB Units;YB Method;LU;LU Units;LU Method;CO2;CO2 Units;CO2 Method;F;F Units;F Method;CL;CL Units;CL Method;U238_PB204;U238_PB204 Units;U238_PB204 Method;TH230_TH232;TH230_TH232 Units;TH230_TH232 Method;RA226_ACTIVITY;RA226_ACTIVITY Units;RA226_ACTIVITY Method;PB210_RA226;PB210_RA226 Units;PB210_RA226 Method;PB210_ACTIVITY;PB210_ACTIVITY Units;PB210_ACTIVITY Method;AG;AG Units;AG Method;AL;AL Units;AL Method;AS;AS Units;AS Method;AU;AU Units;AU Method;B;B Units;B Method;BA;BA Units;BA Method;BE;BE Units;BE Method;BI;BI Units;BI Method;CA;CA Units;CA Method;CD;CD Units;CD Method;CO;CO Units;CO Method;CR;CR Units;CR Method;CS;CS Units;CS Method;CU;CU Units;CU Method;GA;GA Units;GA Method;GER;GER Units;GER Method;HF;HF Units;HF Method;INDIUM;INDIUM Units;INDIUM Method;IR;IR Units;IR Method;K;K Units;K Method;LI;LI Units;LI Method;MN;MN Units;MN Method;MO;MO Units;MO Method;NA;NA Units;NA Method;NB;NB Units;NB Method;NI;NI Units;NI Method;OS;OS Units;OS Method;P;P Units;P Method;PB;PB Units;PB Method;PD;PD Units;PD Method;PT;PT Units;PT Method;RB;RB Units;RB Method;RE;RE Units;RE Method;RH;RH Units;RH Method;RU;RU Units;RU Method;S;S Units;S Method;SB;SB Units;SB Method;SC;SC Units;SC Method;SN;SN Units;SN Method;SR;SR Units;SR Method;TA;TA Units;TA Method;TH;TH Units;TH Method;TI;TI Units;TI Method;TL;TL Units;TL Method;U;U Units;U Method;V;V Units;V Method;W;W Units;W Method;Y;Y Units;Y Method;ZN;ZN Units;ZN Method;ZR;ZR Units;ZR Method;DELTA_O18;DELTA_O18 Units;DELTA_O18 Method;DELTA_C13;DELTA_C13 Units;DELTA_C13 Method;DELTA_MO98;DELTA_MO98 Units;DELTA_MO98 Method;DELTA_ZN66;DELTA_ZN66 Units;DELTA_ZN66 Method;DELTA_ZN68;DELTA_ZN68 Units;DELTA_ZN68 Method;OS188;OS188 Units;OS188 Method;FE3P_FET;FE3P_FET Units;FE3P_FET Method;TI;TI Units;TI Method;AS;AS Units;AS Method;AS;AS Units;AS Method;GER;GER Units;GER Method;H2O_M;H2O_M Units;H2O_M Method;H2O_P;H2O_P Units;H2O_P Method;H2O_M;H2O_M Units;H2O_M Method;H2O_P;H2O_P Units;H2O_P Method;INDIUM;INDIUM Units;INDIUM Method
GROSCAMP-W-245418;;GROSSMAN-CAMP;GROSSMAN, 1991;40,2;-76,8722;0,001;;;CONTINENTAL_RIFT;;;;"AAS; COL; INAA; TITR; Unknown";WHOLE ROCK;IGNEOUS:VOLCANIC:MAFIC;DIABASE;;52,8;wt%;COL;1,44;wt%;COL;14,5;wt%;COL;;;;2,15;wt%;Unknown;;;;9,4;wt%;TITR;;;;;;;0,19;wt%;AAS;5,14;wt%;AAS;9,99;wt%;Unknown;;;;2,47;wt%;Unknown;0,97;wt%;AAS;0,18;wt%;COL;;;;;;;;;;0,17;wt%;TITR;0,71;wt%;TITR;;;;;;;;;;50;ppm;Unknown;44;ppm;Unknown;137;ppm;Unknown;;;;65;ppm;Unknown;1,6;ppm;INAA;;;;;;;;;;;;;;;;;;;;;;;;;;;;;;;;;;;;;;;;;;;;;;;;;;;;;;;;;;;;;;;;;;;;;;;;;;;;;;;;;;;;;;;;;;;;;;;;;;;;;;;;;;;;;;;;;;;;;;;;;;;;;;;15;ppm;INAA;30;ppm;INAA;;;;16;ppm;INAA;4,5;ppm;INAA;1,3;ppm;INAA;;;;0,73;ppm;INAA;;;;;;;;;;;;;2,8;ppm;INAA;0,37;ppm;INAA;0,02;ppm;TITR;;;;;;;;;;;;;;;;;;;;;;;;;;;;1,6;ppm;INAA;;;;;;;256;ppm;Unknown;;;;;;;;;;;;;44;ppm;Unknown;37;ppm;Unknown;0,94;ppm;INAA;137;ppm;Unknown;;;;;;;3,4;ppm;INAA;;;;;;;;;;;;;;;;;;;;;;;;;50;ppm;Unknown;;;;;;;;;;12;ppm;Unknown;6,9;ppm;Unknown;29;ppm;Unknown;;;;;;;;;;;;;0,22;ppm;INAA;34;ppm;INAA;;;;202;ppm;Unknown;0,74;ppm;INAA;3;ppm;INAA;;;;;;;0,87;ppm;INAA;;;;;;;;;;65;ppm;Unknown;133;ppm;Unknown;;;;;;;;;;;;;;;;;;;;;;;;;1,6;ppm;INAA;1,6;ppm;INAA;;;;0,17;wt%;TITR;0,71;wt%;TITR;0,17;wt%;TITR;0,71;wt%;TITR;;;
GROSCAMP-W-245709;;GROSSMAN-CAMP;GROSSMAN, 1991;38,526;-78,014;0,001;;;CONTINENTAL_RIFT;;;;Unknown;WHOLE ROCK;IGNEOUS:VOLCANIC:MAFIC;DIABASE;;;;;;;;;;;;;;;;;;;;;;;;;;;;;;;;;;;;;;;;;;;;;;;;;;;;;;;;;;;;;;;;;;;;;;;;;;;;;;;;;;;;;;;;;;;;;;;;;;;;;;;;;;;;;;;;;;;;;;;;;;;;;;;;;;;;;;;;;;;;;;;;;;;;;;;;;;;;;;;;;;;;;;;;;;;;;;;;;;;;;;;;;;;;;;;;;;;;;;;;;;;;;;;;;;;;;;;;;;;;;;;;;;;;;;;;;;;;;;;;;;;;;;;;;;;;;;;;;;;;;;;;;;;;;;;;;;;;;;;;;;;;;;;;;;;;;;;;;;;;;;;;;;;;;;;;;;;;;;;;;;;;;;;;;;;;;;;;;;;;;;;;;;;;;;;;;;;;;;;;;;;;;;;;;;;38;ppm;Unknown;5;ppm;Unknown;;;;;;;;;;;;;;;;;;;;;;;;;;;;;;;;;;;;;;;;;;;;;;;;;;;;;;;;;;;;;;;;;;;;;;;;;;;;;;;;;;;;;;;;;;;;;;;;;;;;;;;;;
GROSCAMP-W-245710;;GROSSMAN-CAMP;GROSSMAN, 1991;38,526;-78,014;0,001;;;CONTINENTAL_RIFT;;;;Unknown;WHOLE ROCK;IGNEOUS:VOLCANIC:MAFIC;DIABASE;;;;;;;;;;;;;;;;;;;;;;;;;;;;;;;;;;;;;;;;;;;;;;;;;;;;;;;;;;;;;;;;;;;;;;;;;;;;;;;;;;;;;;;;;;;;;;;;;;;;;;;;;;;;;;;;;;;;;;;;;;;;;;;;;;;;;;;;;;;;;;;;;;;;;;;;;;;;;;;;;;;;;;;;;;;;;;;;;;;;;;;;;;;;;;;;;;;;;;;;;;;;;;;;;;;;;;;;;;;;;;;;;;;;;;;;;;;;;;;;;;;;;;;;;;;;;;;;;;;;;;;;;;;;;;;;;;;;;;;;;;;;;;;;;;;;;;;;;;;;;;;;;;;;;;;;;;;;;;;;;;;;;;;;;;;;;;;;;;;;;;;;;;;;;;;;;;;;;;;;;;;;;;;;;;;38;ppm;Unknown;4,5;ppm;Unknown;;;;;;;;;;;;;;;;;;;;;;;;;;;;;;;;;;;;;;;;;;;;;;;;;;;;;;;;;;;;;;;;;;;;;;;;;;;;;;;;;;;;;;;;;;;;;;;;;;;;;;;;;
GROSCAMP-W-245711;;GROSSMAN-CAMP;GROSSMAN, 1991;38,526;-78,014;0,001;;;CONTINENTAL_RIFT;;;;Unknown;WHOLE ROCK;IGNEOUS:VOLCANIC:MAFIC;DIABASE;;;;;;;;;;;;;;;;;;;;;;;;;;;;;;;;;;;;;;;;;;;;;;;;;;;;;;;;;;;;;;;;;;;;;;;;;;;;;;;;;;;;;;;;;;;;;;;;;;;;;;;;;;;;;;;;;;;;;;;;;;;;;;;;;;;;;;;;;;;;;;;;;;;;;;;;;;;;;;;;;;;;;;;;;;;;;;;;;;;;;;;;;;;;;;;;;;;;;;;;;;;;;;;;;;;;;;;;;;;;;;;;;;;;;;;;;;;;;;;;;;;;;;;;;;;;;;;;;;;;;;;;;;;;;;;;;;;;;;;;;;;;;;;;;;;;;;;;;;;;;;;;;;;;;;;;;;;;;;;;;;;;;;;;;;;;;;;;;;;;;;;;;;;;;;;;;;;;;;;;;;;;;;;;;;;13;ppm;Unknown;3,4;ppm;Unknown;;;;;;;;;;;;;;;;;;;;;;;;;;;;;;;;;;;;;;;;;;;;;;;;;;;;;;;;;;;;;;;;;;;;;;;;;;;;;;;;;;;;;;;;;;;;;;;;;;;;;;;;;
GROSCAMP-W-245712;;GROSSMAN-CAMP;GROSSMAN, 1991;38,526;-78,014;0,001;;;CONTINENTAL_RIFT;;;;Unknown;WHOLE ROCK;IGNEOUS:VOLCANIC:MAFIC;DIABASE;;;;;;;;;;;;;;;;;;;;;;;;;;;;;;;;;;;;;;;;;;;;;;;;;;;;;;;;;;;;;;;;;;;;;;;;;;;;;;;;;;;;;;;;;;;;;;;;;;;;;;;;;;;;;;;;;;;;;;;;;;;;;;;;;;;;;;;;;;;;;;;;;;;;;;;;;;;;;;;;;;;;;;;;;;;;;;;;;;;;;;;;;;;;;;;;;;;;;;;;;;;;;;;;;;;;;;;;;;;;;;;;;;;;;;;;;;;;;;;;;;;;;;;;;;;;;;;;;;;;;;;;;;;;;;;;;;;;;;;;;;;;;;;;;;;;;;;;;;;;;;;;;;;;;;;;;;;;;;;;;;;;;;;;;;;;;;;;;;;;;;;;;;;;;;;;;;;;;;;;;;;;;;;;;;;15;ppm;Unknown;4;ppm;Unknown;;;;;;;;;;;;;;;;;;;;;;;;;;;;;;;;;;;;;;;;;;;;;;;;;;;;;;;;;;;;;;;;;;;;;;;;;;;;;;;;;;;;;;;;;;;;;;;;;;;;;;;;;
GROSCAMP-W-245713;;GROSSMAN-CAMP;GROSSMAN, 1991;38,526;-78,014;0,001;;;CONTINENTAL_RIFT;;;;Unknown;WHOLE ROCK;IGNEOUS:VOLCANIC:MAFIC;DIABASE;;;;;;;;;;;;;;;;;;;;;;;;;;;;;;;;;;;;;;;;;;;;;;;;;;;;;;;;;;;;;;;;;;;;;;;;;;;;;;;;;;;;;;;;;;;;;;;;;;;;;;;;;;;;;;;;;;;;;;;;;;;;;;;;;;;;;;;;;;;;;;;;;;;;;;;;;;;;;;;;;;;;;;;;;;;;;;;;;;;;;;;;;;;;;;;;;;;;;;;;;;;;;;;;;;;;;;;;;;;;;;;;;;;;;;;;;;;;;;;;;;;;;;;;;;;;;;;;;;;;;;;;;;;;;;;;;;;;;;;;;;;;;;;;;;;;;;;;;;;;;;;;;;;;;;;;;;;;;;;;;;;;;;;;;;;;;;;;;;;;;;;;;;;;;;;;;;;;;;;;;;;;;;;;;;;13;ppm;Unknown;4,5;ppm;Unknown;;;;;;;;;;;;;;;;;;;;;;;;;;;;;;;;;;;;;;;;;;;;;;;;;;;;;;;;;;;;;;;;;;;;;;;;;;;;;;;;;;;;;;;;;;;;;;;;;;;;;;;;;
GROSCAMP-W-245958;;GROSSMAN-CAMP;GROSSMAN, 1991;40,23;-75,99;0,001;;;CONTINENTAL_RIFT;;;;"AAS; COL; ICP; ICPMS; INAA; TITR; Unknown";WHOLE ROCK;IGNEOUS:VOLCANIC:MAFIC;DIABASE;;52,7;wt%;COL;0,87;wt%;COL;14,6;wt%;COL;;;;0,55;wt%;Unknown;;;;9;wt%;TITR;;;;;;;0,17;wt%;AAS;7,9;wt%;AAS;11,6;wt%;Unknown;;;;2,1;wt%;Unknown;0,5;wt%;AAS;0,08;wt%;COL;;;;;;;;;;0,37;wt%;TITR;0,63;wt%;TITR;;;;;;;;;;100;ppm;Unknown;45;ppm;Unknown;;;;;;;63;ppm;Unknown;1,2;ppm;INAA;;;;0,02;ppm;INAA;;;;;;;;;;;;;;;;;;;;;;;;;;;;;;;;;;;;;;;;;;;;;;;;;;;;;;;;;;;;;;;;;;;;;;;;;;;;;;;;;;;;;;;;;;;;;;;;;;;;;;;;;;;;;;;;;;;;;;;;;8,6;ppm;INAA;18,1;ppm;INAA;;;;11;ppm;INAA;2,62;ppm;INAA;0,96;ppm;INAA;;;;0,49;ppm;INAA;;;;;;;;;;;;;1,7;ppm;INAA;0,23;ppm;INAA;0,03;ppm;TITR;0,02;ppm;INAA;0,03;ppm;INAA;;;;;;;;;;;;;;;;;;;;;;1,2;ppm;INAA;;;;;;;150;ppm;Unknown;;;;;;;;;;;;;45;ppm;Unknown;279;ppm;Unknown;0,96;ppm;INAA;;;;18;ppm;ICP;;;;1,99;ppm;INAA;;;;0,5;ppm;ICPMS;;;;;;;;;;;;;;;;6,5;ppm;ICP;100;ppm;Unknown;;;;;;;;;;8,8;ppm;Unknown;14;ppm;Unknown;22;ppm;Unknown;;;;0,7;ppm;Unknown;;;;0,02;ppm;INAA;;;;35;ppm;INAA;;;;190;ppm;Unknown;0,43;ppm;INAA;1,7;ppm;INAA;;;;;;;0,37;ppm;INAA;;;;;;;16;ppm;Unknown;63;ppm;Unknown;;;;;;;;;;;;;;;;;;;;;;;;;;;;1,2;ppm;INAA;1,2;ppm;INAA;;;;0,37;wt%;TITR;0,63;wt%;TITR;0,37;wt%;TITR;0,63;wt%;TITR;;;
GROSCAMP-W-245959;;GROSSMAN-CAMP;GROSSMAN, 1991;40,23;-75,99;0,001;;;CONTINENTAL_RIFT;;;;"AAS; COL; ICP; INAA; TITR; Unknown";WHOLE ROCK;IGNEOUS:VOLCANIC:MAFIC;DIABASE;;46;wt%;COL;1,02;wt%;COL;10,8;wt%;COL;;;;2,49;wt%;Unknown;;;;8;wt%;TITR;;;;;;;0,12;wt%;AAS;6,4;wt%;AAS;11,5;wt%;Unknown;;;;1,03;wt%;Unknown;0,54;wt%;AAS;0,13;wt%;COL;;;;;;;;;;0,77;wt%;TITR;4,2;wt%;TITR;;;;;;;;;;100;ppm;Unknown;50;ppm;Unknown;;;;;;;150;ppm;Unknown;3,5;ppm;INAA;;;;0,03;ppm;INAA;;;;;;;;;;;;;;;;;;;;;;;;;;;;;;;;;;;;;;;;;;;;;;;;;;;;;;;;;;;;;;;;;;;;;;;;;;;;;;;;;;;;;;;;;;;;;;;;;;;;;;;;;;;;;;;;;;;;;;;;;11,3;ppm;INAA;22;ppm;INAA;;;;12;ppm;INAA;3;ppm;INAA;0,9;ppm;INAA;;;;0,51;ppm;INAA;;;;;;;;;;;;;2;ppm;INAA;0,29;ppm;INAA;7,4;ppm;TITR;0,03;ppm;INAA;0,05;ppm;INAA;;;;;;;;;;;;;;;;;;;;;;3,5;ppm;INAA;;;;;;;49;ppm;Unknown;;;;;;;;;;;;;50;ppm;Unknown;203;ppm;Unknown;3;ppm;INAA;;;;16;ppm;ICP;;;;2,2;ppm;INAA;;;;;;;;;;;;;;;;;;;;;;6,5;ppm;ICP;100;ppm;Unknown;;;;;;;;;;10;ppm;Unknown;14;ppm;Unknown;32;ppm;Unknown;;;;;;;;;;0,03;ppm;INAA;;;;35;ppm;INAA;;;;52;ppm;Unknown;0,47;ppm;INAA;2;ppm;INAA;;;;;;;0,44;ppm;INAA;;;;;;;17;ppm;Unknown;150;ppm;Unknown;;;;;;;;;;;;;;;;;;;;;;;;;;;;3,5;ppm;INAA;3,5;ppm;INAA;;;;0,77;wt%;TITR;4,2;wt%;TITR;0,77;wt%;TITR;4,2;wt%;TITR;;;
GROSCAMP-W-245960;;GROSSMAN-CAMP;GROSSMAN, 1991;40,23;-75,99;0,001;;;CONTINENTAL_RIFT;;;;"AAS; COL; ICP; INAA; TITR; Unknown";WHOLE ROCK;IGNEOUS:VOLCANIC:MAFIC;DIABASE;;52,5;wt%;COL;0,98;wt%;COL;14,1;wt%;COL;;;;2,31;wt%;Unknown;;;;8,2;wt%;TITR;;;;;;;0,17;wt%;AAS;8,11;wt%;AAS;11,8;wt%;Unknown;;;;1,94;wt%;Unknown;0,49;wt%;AAS;0,1;wt%;COL;;;;;;;;;;0,39;wt%;TITR;0,4;wt%;TITR;;;;;;;;;;100;ppm;Unknown;49;ppm;Unknown;;;;;;;60;ppm;Unknown;0,8;ppm;INAA;;;;0,05;ppm;INAA;;;;;;;;;;;;;;;;;;;;;;;;;;;;;;;;;;;;;;;;;;;;;;;;;;;;;;;;;;;;;;;;;;;;;;;;;;;;;;;;;;;;;;;;;;;;;;;;;;;;;;;;;;;;;;;;;;;;;;;;;8,7;ppm;INAA;19;ppm;INAA;;;;9,5;ppm;INAA;2,86;ppm;INAA;0,97;ppm;INAA;;;;0,56;ppm;INAA;;;;;;;;;;;;;2,2;ppm;INAA;0,28;ppm;INAA;0,04;ppm;TITR;0,02;ppm;INAA;0,01;ppm;INAA;;;;;;;;;;;;;;;;;;;;;;0,8;ppm;INAA;;;;;;;140;ppm;Unknown;;;;;;;;;;;;;49;ppm;Unknown;258;ppm;Unknown;0,66;ppm;INAA;;;;18;ppm;ICP;;;;2,1;ppm;INAA;;;;;;;;;;;;;;;;;;;;;;6,6;ppm;ICP;100;ppm;Unknown;;;;;;;;;;9,7;ppm;Unknown;14;ppm;Unknown;17;ppm;Unknown;;;;0,6;ppm;Unknown;;;;0,05;ppm;INAA;0,14;ppm;INAA;39;ppm;INAA;;;;180;ppm;Unknown;0,47;ppm;INAA;1,8;ppm;INAA;;;;;;;0,43;ppm;INAA;;;;;;;17;ppm;Unknown;60;ppm;Unknown;;;;;;;;;;;;;;;;;;;;;;;;;;;;0,8;ppm;INAA;0,8;ppm;INAA;;;;0,39;wt%;TITR;0,4;wt%;TITR;0,39;wt%;TITR;0,4;wt%;TITR;;;
GROSCAMP-W-245961;;GROSSMAN-CAMP;GROSSMAN, 1991;40,23;-75,99;0,001;;;CONTINENTAL_RIFT;;;;"AAS; COL; ICP; INAA; TITR; Unknown";WHOLE ROCK;IGNEOUS:VOLCANIC:MAFIC;DIABASE;;52,7;wt%;COL;1,27;wt%;COL;15,5;wt%;COL;;;;2,18;wt%;Unknown;;;;9;wt%;TITR;;;;;;;0,16;wt%;AAS;5,27;wt%;AAS;10,5;wt%;Unknown;;;;2,43;wt%;Unknown;0,73;wt%;AAS;0,16;wt%;COL;;;;;;;;;;0,36;wt%;TITR;0,89;wt%;TITR;;;;;;;;;;58;ppm;Unknown;45;ppm;Unknown;;;;;;;78;ppm;Unknown;1,3;ppm;INAA;;;;0,04;ppm;INAA;;;;;;;;;;;;;;;;;;;;;;;;;;;;;;;;;;;;;;;;;;;;;;;;;;;;;;;;;;;;;;;;;;;;;;;;;;;;;;;;;;;;;;;;;;;;;;;;;;;;;;;;;;;;;;;;;;;;;;;;;12,2;ppm;INAA;26,5;ppm;INAA;;;;14;ppm;INAA;3,7;ppm;INAA;1,2;ppm;INAA;;;;0,7;ppm;INAA;;;;;;;;;;;;;2,3;ppm;INAA;0,33;ppm;INAA;0,06;ppm;TITR;0,03;ppm;INAA;0,03;ppm;INAA;;;;;;;;;;;;;;;;;;;;;;1,3;ppm;INAA;10;ppm;INAA;;;;200;ppm;Unknown;;;;;;;;;;;;;45;ppm;Unknown;48;ppm;Unknown;1,2;ppm;INAA;;;;21;ppm;ICP;;;;2,6;ppm;INAA;;;;;;;;;;;;;;;;;;;;;;6,6;ppm;ICP;58;ppm;Unknown;;;;;;;;;;11;ppm;Unknown;6,9;ppm;Unknown;27;ppm;Unknown;;;;;;;;;;0,04;ppm;INAA;0,23;ppm;INAA;36;ppm;INAA;;;;210;ppm;Unknown;0,61;ppm;INAA;2,4;ppm;INAA;;;;;;;0,55;ppm;INAA;;;;;;;22;ppm;Unknown;78;ppm;Unknown;;;;;;;;;;;;;;;;;;;;;;;;;;;;1,3;ppm;INAA;1,3;ppm;INAA;;;;0,36;wt%;TITR;0,89;wt%;TITR;0,36;wt%;TITR;0,89;wt%;TITR;;;
GROSCAMP-W-245962;;GROSSMAN-CAMP;GROSSMAN, 1991;40,23;-75,99;0,001;;;CONTINENTAL_RIFT;;;;"AAS; COL; ICP; INAA; TITR; Unknown";WHOLE ROCK;IGNEOUS:PLUTONIC:MAFIC;GABBRO;;54,1;wt%;COL;1,78;wt%;COL;16;wt%;COL;;;;2,93;wt%;Unknown;;;;8,8;wt%;TITR;;;;;;;0,16;wt%;AAS;2,7;wt%;AAS;8,63;wt%;Unknown;;;;3,1;wt%;Unknown;1,24;wt%;AAS;0,24;wt%;COL;;;;;;;;;;0,32;wt%;TITR;0,86;wt%;TITR;;;;;;;;;;23;ppm;Unknown;36;ppm;Unknown;;;;;;;100;ppm;Unknown;3,1;ppm;INAA;;;;0,05;ppm;INAA;;;;;;;;;;;;;;;;;;;;;;;;;;;;;;;;;;;;;;;;;;;;;;;;;;;;;;;;;;;;;;;;;;;;;;;;;;;;;;;;;;;;;;;;;;;;;;;;;;;;;;;;;;;;;;;;;;;;;;;;;19,9;ppm;INAA;41;ppm;INAA;;;;19;ppm;INAA;5,6;ppm;INAA;1,88;ppm;INAA;;;;0,97;ppm;INAA;;;;;;;;;;;;;3,3;ppm;INAA;0,45;ppm;INAA;0,04;ppm;TITR;0,04;ppm;INAA;0,13;ppm;INAA;;;;;;;;;;;;;;;;;;;;;;3,1;ppm;INAA;10;ppm;INAA;;;;320;ppm;Unknown;;;;;;;;;;;;;36;ppm;Unknown;8,3;ppm;Unknown;1,9;ppm;INAA;;;;24;ppm;ICP;;;;4,5;ppm;INAA;;;;;;;;;;;;;;;;;;;;;;13;ppm;ICP;23;ppm;Unknown;;;;;;;;;;15;ppm;Unknown;5,8;ppm;Unknown;51;ppm;Unknown;;;;;;;;;;0,05;ppm;INAA;0,25;ppm;INAA;27;ppm;INAA;;;;230;ppm;Unknown;0,96;ppm;INAA;4,3;ppm;INAA;;;;;;;0,82;ppm;INAA;;;;;;;32;ppm;Unknown;100;ppm;Unknown;;;;;;;;;;;;;;;;;;;;;;;;;;;;3,1;ppm;INAA;3,1;ppm;INAA;;;;0,32;wt%;TITR;0,86;wt%;TITR;0,32;wt%;TITR;0,86;wt%;TITR;;;
GROSCAMP-W-245963;;GROSSMAN-CAMP;GROSSMAN, 1991;40,23;-75,99;0,001;;;CONTINENTAL_RIFT;;;;"AAS; COL; ICP; INAA; TITR; Unknown";WHOLE ROCK;IGNEOUS:VOLCANIC:FELSIC;GRANOPHYRE;;54,6;wt%;COL;2,06;wt%;COL;13,6;wt%;COL;;;;5,89;wt%;Unknown;;;;7,7;wt%;TITR;;;;;;;0,2;wt%;AAS;2,51;wt%;AAS;6,75;wt%;Unknown;;;;3,6;wt%;Unknown;1,59;wt%;AAS;0,43;wt%;COL;;;;;;;;;;0,31;wt%;TITR;1,7;wt%;TITR;;;;;;;;;;20;ppm;Unknown;37;ppm;Unknown;;;;;;;120;ppm;Unknown;;;;;;;0,03;ppm;INAA;;;;;;;;;;;;;;;;;;;;;;;;;;;;;;;;;;;;;;;;;;;;;;;;;;;;;;;;;;;;;;;;;;;;;;;;;;;;;;;;;;;;;;;;;;;;;;;;;;;;;;;;;;;;;;;;;;;;;;;;;26,8;ppm;INAA;56;ppm;INAA;;;;30;ppm;INAA;8;ppm;INAA;1,92;ppm;INAA;;;;1,4;ppm;INAA;;;;;;;;;;;;;4,3;ppm;INAA;0,61;ppm;INAA;0,1;ppm;TITR;0,05;ppm;INAA;0,22;ppm;INAA;;;;;;;;;;;;;;;;;;;;;;;;;;;;;;;340;ppm;Unknown;;;;;;;;;;;;;37;ppm;Unknown;6,4;ppm;Unknown;1,2;ppm;INAA;;;;24;ppm;ICP;;;;6,2;ppm;INAA;;;;;;;;;;;;;;;;;;;;;;20;ppm;ICP;20;ppm;Unknown;;;;;;;;;;10;ppm;Unknown;3;ppm;Unknown;57;ppm;Unknown;;;;;;;;;;0,03;ppm;INAA;0,25;ppm;INAA;28;ppm;INAA;;;;210;ppm;Unknown;1,51;ppm;INAA;5,7;ppm;INAA;;;;;;;1,2;ppm;INAA;;;;;;;44;ppm;Unknown;120;ppm;Unknown;;;;;;;;;;;;;;;;;;;;;;;;;;;;;;;;;;;;;0,31;wt%;TITR;1,7;wt%;TITR;0,31;wt%;TITR;1,7;wt%;TITR;;;
GROSCAMP-W-245964;;GROSSMAN-CAMP;GROSSMAN, 1991;40,23;-75,99;0,001;;;CONTINENTAL_RIFT;;;;"AAS; COL; ICP; INAA; TITR; Unknown";WHOLE ROCK;IGNEOUS:VOLCANIC:MAFIC;DIABASE;;52,3;wt%;COL;0,99;wt%;COL;16,5;wt%;COL;;;;1,27;wt%;Unknown;;;;8,6;wt%;TITR;;;;;;;0,16;wt%;AAS;5,98;wt%;AAS;11,5;wt%;Unknown;;;;2,32;wt%;Unknown;0,58;wt%;AAS;0,12;wt%;COL;;;;;;;;;;0,18;wt%;TITR;0,91;wt%;TITR;;;;;;;;;;67;ppm;Unknown;43;ppm;Unknown;;;;;;;61;ppm;Unknown;;;;;;;0,02;ppm;INAA;;;;;;;;;;;;;;;;;;;;;;;;;;;;;;;;;;;;;;;;;;;;;;;;;;;;;;;;;;;;;;;;;;;;;;;;;;;;;;;;;;;;;;;;;;;;;;;;;;;;;;;;;;;;;;;;;;;;;;;;;10,3;ppm;INAA;20,9;ppm;INAA;;;;11;ppm;INAA;3,2;ppm;INAA;1;ppm;INAA;;;;0,57;ppm;INAA;;;;;;;;;;;;;2;ppm;INAA;0,29;ppm;INAA;0,02;ppm;TITR;0,02;ppm;INAA;0,01;ppm;INAA;;;;;;;;;;;;;;;;;;;;;;;;;;;;;;;160;ppm;Unknown;;;;;;;;;;;;;43;ppm;Unknown;89;ppm;Unknown;0,86;ppm;INAA;;;;20;ppm;ICP;;;;2,2;ppm;INAA;;;;;;;;;;;;;;;;;;;;;;6,7;ppm;ICP;67;ppm;Unknown;;;;;;;;;;9,6;ppm;Unknown;12;ppm;Unknown;24;ppm;Unknown;;;;0,5;ppm;Unknown;;;;0,02;ppm;INAA;0,21;ppm;INAA;34;ppm;INAA;;;;210;ppm;Unknown;0,51;ppm;INAA;2,1;ppm;INAA;;;;;;;0,52;ppm;INAA;;;;;;;18;ppm;Unknown;61;ppm;Unknown;;;;;;;;;;;;;;;;;;;;;;;;;;;;;;;;;;;;;0,18;wt%;TITR;0,91;wt%;TITR;0,18;wt%;TITR;0,91;wt%;TITR;;;
GROSCAMP-W-245965;;GROSSMAN-CAMP;GROSSMAN, 1991;40,23;-75,99;0,001;;;CONTINENTAL_RIFT;;;;"AAS; COL; ICP; INAA; TITR; Unknown";WHOLE ROCK;IGNEOUS:VOLCANIC:MAFIC;DIABASE;;51,4;wt%;COL;1,17;wt%;COL;16,4;wt%;COL;;;;1,64;wt%;Unknown;;;;8,6;wt%;TITR;;;;;;;0,17;wt%;AAS;4,85;wt%;AAS;9,94;wt%;Unknown;;;;3,18;wt%;Unknown;1,13;wt%;AAS;0,15;wt%;COL;;;;;;;;;;0,37;wt%;TITR;1,5;wt%;TITR;;;;;;;;;;49;ppm;Unknown;41;ppm;Unknown;;;;;;;51;ppm;Unknown;1,7;ppm;INAA;;;;0,01;ppm;INAA;;;;;;;;;;;;;;;;;;;;;;;;;;;;;;;;;;;;;;;;;;;;;;;;;;;;;;;;;;;;;;;;;;;;;;;;;;;;;;;;;;;;;;;;;;;;;;;;;;;;;;;;;;;;;;;;;;;;;;;;;11,5;ppm;INAA;24;ppm;INAA;;;;15;ppm;INAA;3,5;ppm;INAA;1,2;ppm;INAA;;;;0,63;ppm;INAA;;;;;;;;;;;;;2,1;ppm;INAA;0,3;ppm;INAA;0,04;ppm;TITR;0,03;ppm;INAA;0,07;ppm;INAA;;;;;;;;;;;;;;;;;;;;;;1,7;ppm;INAA;;;;;;;230;ppm;Unknown;;;;;;;;;;;;;41;ppm;Unknown;30;ppm;Unknown;0,52;ppm;INAA;;;;20;ppm;ICP;;;;2,5;ppm;INAA;;;;;;;;;;;;;;;;;;;;;;7,8;ppm;ICP;49;ppm;Unknown;;;;;;;;;;11;ppm;Unknown;9,4;ppm;Unknown;39;ppm;Unknown;;;;0,5;ppm;Unknown;;;;0,01;ppm;INAA;0,22;ppm;INAA;31;ppm;INAA;;;;210;ppm;Unknown;0,55;ppm;INAA;2,3;ppm;INAA;;;;;;;0,37;ppm;INAA;;;;;;;20;ppm;Unknown;51;ppm;Unknown;;;;;;;;;;;;;;;;;;;;;;;;;;;;1,7;ppm;INAA;1,7;ppm;INAA;;;;0,37;wt%;TITR;1,5;wt%;TITR;0,37;wt%;TITR;1,5;wt%;TITR;;;