SAMPLE ID;IGSN;EXPEDITION ID;REFERENCES;LATITUDE;LONGITUDE;LOC PREC;MIN ELEVATION;MAX ELEVATION;TECTONIC SETTING;MIN AGE;AGE;MAX AGE;METHOD;ANALYZED MATERIAL;ROCK TYPE;ROCK NAME;MINERAL;SIO2;SIO2 Units;SIO2 Method;TIO2;TIO2 Units;TIO2 Method;AL2O3;AL2O3 Units;AL2O3 Method;CR2O3;CR2O3 Units;CR2O3 Method;FE2O3;FE2O3 Units;FE2O3 Method;FE2O3T;FE2O3T Units;FE2O3T Method;FEO;FEO Units;FEO Method;FEOT;FEOT Units;FEOT Method;NIO;NIO Units;NIO Method;MNO;MNO Units;MNO Method;MGO;MGO Units;MGO Method;CAO;CAO Units;CAO Method;SRO;SRO Units;SRO Method;NA2O;NA2O Units;NA2O Method;K2O;K2O Units;K2O Method;P2O5;P2O5 Units;P2O5 Method;BAO;BAO Units;BAO Method;LOI;LOI Units;LOI Method;H2O;H2O Units;H2O Method;H2O_M;H2O_M Units;H2O_M Method;H2O_P;H2O_P Units;H2O_P Method;SO3;SO3 Units;SO3 Method;COO;COO Units;COO Method;MN;MN Units;MN Method;NI;NI Units;NI Method;CO;CO Units;CO Method;CU;CU Units;CU Method;CD;CD Units;CD Method;ZN;ZN Units;ZN Method;AS;AS Units;AS Method;AG;AG Units;AG Method;S;S Units;S Method;ZRO2;ZRO2 Units;ZRO2 Method;AL;AL Units;AL Method;CA;CA Units;CA Method;SR87_SR86;SR87_SR86 Units;SR87_SR86 Method;SR87_SR86_INI;SR87_SR86_INI Units;SR87_SR86_INI Method;RB87_SR86;RB87_SR86 Units;RB87_SR86 Method;ND143_ND144;ND143_ND144 Units;ND143_ND144 Method;ND143_ND144_INI;ND143_ND144_INI Units;ND143_ND144_INI Method;SM147_ND144;SM147_ND144 Units;SM147_ND144 Method;E_ND;E_ND Units;E_ND Method;E_ND_INI;E_ND_INI Units;E_ND_INI Method;PB204_PB206;PB204_PB206 Units;PB204_PB206 Method;PB206_PB204;PB206_PB204 Units;PB206_PB204 Method;PB206_PB204_INI;PB206_PB204_INI Units;PB206_PB204_INI Method;PB207_PB204;PB207_PB204 Units;PB207_PB204 Method;PB207_PB204_INI;PB207_PB204_INI Units;PB207_PB204_INI Method;PB207_PB206;PB207_PB206 Units;PB207_PB206 Method;PB208_PB204;PB208_PB204 Units;PB208_PB204 Method;PB208_PB204_INI;PB208_PB204_INI Units;PB208_PB204_INI Method;PB208_PB206;PB208_PB206 Units;PB208_PB206 Method;HF176_HF177;HF176_HF177 Units;HF176_HF177 Method;RE187_OS188;RE187_OS188 Units;RE187_OS188 Method;OS187_OS188;OS187_OS188 Units;OS187_OS188 Method;OS187_OS188_INI;OS187_OS188_INI Units;OS187_OS188_INI Method;G_OS;G_OS Units;G_OS Method;G_OS_INI;G_OS_INI Units;G_OS_INI Method;ND143_ND144_INI;ND143_ND144_INI Units;ND143_ND144_INI Method;PB206_PB204_INI;PB206_PB204_INI Units;PB206_PB204_INI Method;PB207_PB204_INI;PB207_PB204_INI Units;PB207_PB204_INI Method;PB208_PB204_INI;PB208_PB204_INI Units;PB208_PB204_INI Method;SR87_SR86_INI;SR87_SR86_INI Units;SR87_SR86_INI Method;HE;HE Units;HE Method;HE3;HE3 Units;HE3 Method;HE3_HE4_R_RA;HE3_HE4_R_RA Units;HE3_HE4_R_RA Method;AR36;AR36 Units;AR36 Method;AR40;AR40 Units;AR40 Method;AR40_AR36;AR40_AR36 Units;AR40_AR36 Method;NE20;NE20 Units;NE20 Method;NE20_NE22;NE20_NE22 Units;NE20_NE22 Method;NE21_NE22;NE21_NE22 Units;NE21_NE22 Method;LA;LA Units;LA Method;CE;CE Units;CE Method;PR;PR Units;PR Method;ND;ND Units;ND Method;SM;SM Units;SM Method;EU;EU Units;EU Method;GD;GD Units;GD Method;TB;TB Units;TB Method;DY;DY Units;DY Method;HO;HO Units;HO Method;ER;ER Units;ER Method;TM;TM Units;TM Method;YB;YB Units;YB Method;LU;LU Units;LU Method;CO2;CO2 Units;CO2 Method;F;F Units;F Method;CL;CL Units;CL Method;U238_PB204;U238_PB204 Units;U238_PB204 Method;TH230_TH232;TH230_TH232 Units;TH230_TH232 Method;RA226_ACTIVITY;RA226_ACTIVITY Units;RA226_ACTIVITY Method;PB210_RA226;PB210_RA226 Units;PB210_RA226 Method;PB210_ACTIVITY;PB210_ACTIVITY Units;PB210_ACTIVITY Method;AG;AG Units;AG Method;AL;AL Units;AL Method;AS;AS Units;AS Method;AU;AU Units;AU Method;B;B Units;B Method;BA;BA Units;BA Method;BE;BE Units;BE Method;BI;BI Units;BI Method;CA;CA Units;CA Method;CD;CD Units;CD Method;CO;CO Units;CO Method;CR;CR Units;CR Method;CS;CS Units;CS Method;CU;CU Units;CU Method;GA;GA Units;GA Method;GER;GER Units;GER Method;HF;HF Units;HF Method;INDIUM;INDIUM Units;INDIUM Method;IR;IR Units;IR Method;K;K Units;K Method;LI;LI Units;LI Method;MN;MN Units;MN Method;MO;MO Units;MO Method;NA;NA Units;NA Method;NB;NB Units;NB Method;NI;NI Units;NI Method;OS;OS Units;OS Method;P;P Units;P Method;PB;PB Units;PB Method;PD;PD Units;PD Method;PT;PT Units;PT Method;RB;RB Units;RB Method;RE;RE Units;RE Method;RH;RH Units;RH Method;RU;RU Units;RU Method;S;S Units;S Method;SB;SB Units;SB Method;SC;SC Units;SC Method;SN;SN Units;SN Method;SR;SR Units;SR Method;TA;TA Units;TA Method;TH;TH Units;TH Method;TI;TI Units;TI Method;TL;TL Units;TL Method;U;U Units;U Method;V;V Units;V Method;W;W Units;W Method;Y;Y Units;Y Method;ZN;ZN Units;ZN Method;ZR;ZR Units;ZR Method;DELTA_O18;DELTA_O18 Units;DELTA_O18 Method;DELTA_C13;DELTA_C13 Units;DELTA_C13 Method;DELTA_MO98;DELTA_MO98 Units;DELTA_MO98 Method;DELTA_ZN66;DELTA_ZN66 Units;DELTA_ZN66 Method;DELTA_ZN68;DELTA_ZN68 Units;DELTA_ZN68 Method;OS188;OS188 Units;OS188 Method;FE3P_FET;FE3P_FET Units;FE3P_FET Method;TI;TI Units;TI Method;AS;AS Units;AS Method;AS;AS Units;AS Method;GER;GER Units;GER Method;H2O_M;H2O_M Units;H2O_M Method;H2O_P;H2O_P Units;H2O_P Method;H2O_M;H2O_M Units;H2O_M Method;H2O_P;H2O_P Units;H2O_P Method;INDIUM;INDIUM Units;INDIUM Method
GROSCAMP-W-243874;;GROSSMAN-CAMP;GROSSMAN, 1991;40,1056;-76,95;0,001;;;CONTINENTAL_RIFT;;;;"AAS; COL; ES; ICP; INAA; TITR; Unknown";WHOLE ROCK;IGNEOUS:VOLCANIC:MAFIC;DIABASE;;52,6;wt%;COL;1,12;wt%;COL;15,9;wt%;COL;;;;2;wt%;Unknown;;;;7,9;wt%;TITR;;;;;;;0,16;wt%;AAS;5,87;wt%;AAS;10,9;wt%;Unknown;;;;2,37;wt%;Unknown;0,67;wt%;AAS;0,15;wt%;COL;;;;;;;;;;0,13;wt%;TITR;0,33;wt%;TITR;;;;;;;;;;59;ppm;Unknown;41;ppm;Unknown;132;ppm;Unknown;;;;67;ppm;Unknown;;;;0,044;ppm;AAS;0,04;ppm;INAA;;;;;;;;;;;;;;;;;;;;;;;;;;;;;;;;;;;;;;;;;;;;;;;;;;;;;;;;;;;;;;;;;;;;;;;;;;;;;;;;;;;;;;;;;;;;;;;;;;;;;;;;;;;;;;;;;;;;;;;;;11,1;ppm;INAA;23;ppm;INAA;;;;13;ppm;INAA;3,5;ppm;INAA;1,1;ppm;INAA;;;;0,58;ppm;INAA;;;;;;;;;;;;;2,1;ppm;INAA;0,31;ppm;INAA;0,01;ppm;TITR;0,02;ppm;INAA;0,04;ppm;INAA;;;;;;;;;;;;;;;;0,044;ppm;AAS;;;;;;;;;;9,6;ppm;ES;176;ppm;Unknown;;;;;;;;;;;;;41;ppm;Unknown;84;ppm;Unknown;0,9;ppm;INAA;132;ppm;Unknown;22;ppm;ICP;;;;2,5;ppm;INAA;;;;;;;;;;;;;;;;;;;;;;6,8;ppm;ICP;59;ppm;Unknown;;;;;;;;;;3,3;ppm;Unknown;5,1;ppm;Unknown;18;ppm;Unknown;;;;;;;;;;0,04;ppm;INAA;;;;32;ppm;INAA;;;;211;ppm;Unknown;0,52;ppm;INAA;2,4;ppm;INAA;;;;;;;0,51;ppm;INAA;;;;;;;20;ppm;Unknown;67;ppm;Unknown;93;ppm;Unknown;;;;;;;;;;;;;;;;;;;;;;;;;;;;;;;;;;0,13;wt%;TITR;0,33;wt%;TITR;0,13;wt%;TITR;0,33;wt%;TITR;;;
GROSCAMP-W-243875;;GROSSMAN-CAMP;GROSSMAN, 1991;40,1917;-76,8708;0,001;;;CONTINENTAL_RIFT;;;;"AAS; COL; ES; ICP; INAA; TITR; Unknown";WHOLE ROCK;IGNEOUS:VOLCANIC:MAFIC;DIABASE;;52,3;wt%;COL;1,15;wt%;COL;14,2;wt%;COL;;;;2,81;wt%;Unknown;;;;8,2;wt%;TITR;;;;;;;0,18;wt%;AAS;7,35;wt%;AAS;11;wt%;Unknown;;;;2,13;wt%;Unknown;0,6;wt%;AAS;0,15;wt%;COL;;;;;;;;;;0,14;wt%;TITR;0,35;wt%;TITR;;;;;;;;;;85;ppm;Unknown;47;ppm;Unknown;115;ppm;Unknown;;;;75;ppm;Unknown;;;;0,044;ppm;AAS;0,07;ppm;INAA;;;;;;;;;;;;;;;;;;;;;;;;;;;;;;;;;;;;;;;;;;;;;;;;;;;;;;;;;;;;;;;;;;;;;;;;;;;;;;;;;;;;;;;;;;;;;;;;;;;;;;;;;;;;;;;;;;;;;;;;;11,3;ppm;INAA;24;ppm;INAA;;;;13;ppm;INAA;3,6;ppm;INAA;1,09;ppm;INAA;;;;0,64;ppm;INAA;;;;;;;;;;;;;2,6;ppm;INAA;0,34;ppm;INAA;0,02;ppm;TITR;0,02;ppm;INAA;0,01;ppm;INAA;;;;;;;;;;;;;;;;0,044;ppm;AAS;;;;;;;;;;6,9;ppm;ES;152;ppm;Unknown;;;;;;;;;;;;;47;ppm;Unknown;274;ppm;Unknown;1,1;ppm;INAA;115;ppm;Unknown;19;ppm;ICP;;;;2,5;ppm;INAA;;;;;;;;;;;;;;;;;;;;;;7,1;ppm;ICP;85;ppm;Unknown;;;;;;;;;;10;ppm;Unknown;10;ppm;Unknown;22;ppm;Unknown;;;;0,7;ppm;Unknown;;;;0,07;ppm;INAA;;;;37;ppm;INAA;;;;174;ppm;Unknown;0,53;ppm;INAA;2,2;ppm;INAA;;;;;;;0,57;ppm;INAA;;;;;;;21;ppm;Unknown;75;ppm;Unknown;100;ppm;Unknown;;;;;;;;;;;;;;;;;;;;;;;;;;;;;;;;;;0,14;wt%;TITR;0,35;wt%;TITR;0,14;wt%;TITR;0,35;wt%;TITR;;;
GROSCAMP-W-243876;;GROSSMAN-CAMP;GROSSMAN, 1991;40;-76,875;0,001;;;CONTINENTAL_RIFT;;;;"AAS; COL; ES; ICP; INAA; TITR; Unknown";WHOLE ROCK;IGNEOUS:VOLCANIC:MAFIC;DIABASE;;52,3;wt%;COL;1,16;wt%;COL;13,9;wt%;COL;;;;2,5;wt%;Unknown;;;;8,5;wt%;TITR;;;;;;;0,18;wt%;AAS;7,46;wt%;AAS;10,9;wt%;Unknown;;;;2,1;wt%;Unknown;0,4;wt%;AAS;0,15;wt%;COL;;;;;;;;;;0,29;wt%;TITR;0,68;wt%;TITR;;;;;;;;;;79;ppm;Unknown;47;ppm;Unknown;110;ppm;Unknown;;;;66;ppm;Unknown;1,5;ppm;INAA;0,044;ppm;AAS;0,06;ppm;INAA;;;;;;;;;;;;;;;;;;;;;;;;;;;;;;;;;;;;;;;;;;;;;;;;;;;;;;;;;;;;;;;;;;;;;;;;;;;;;;;;;;;;;;;;;;;;;;;;;;;;;;;;;;;;;;;;;;;;;;;;;12;ppm;INAA;24;ppm;INAA;;;;12;ppm;INAA;3,7;ppm;INAA;1,11;ppm;INAA;;;;0,68;ppm;INAA;;;;;;;;;;;;;2,6;ppm;INAA;0,37;ppm;INAA;0,05;ppm;TITR;0,03;ppm;INAA;0,01;ppm;INAA;;;;;;;;;;;;;;;;0,044;ppm;AAS;;;;1,5;ppm;INAA;;;;9;ppm;ES;152;ppm;Unknown;;;;;;;;;;;;;47;ppm;Unknown;259;ppm;Unknown;0,79;ppm;INAA;110;ppm;Unknown;19;ppm;ICP;;;;2,7;ppm;INAA;;;;;;;;;;;;;;;;;;;;;;7,2;ppm;ICP;79;ppm;Unknown;;;;;;;;;;11;ppm;Unknown;10;ppm;Unknown;19;ppm;Unknown;;;;0,6;ppm;Unknown;;;;0,06;ppm;INAA;0,19;ppm;INAA;38;ppm;INAA;;;;181;ppm;Unknown;0,55;ppm;INAA;2,1;ppm;INAA;;;;;;;0,51;ppm;INAA;;;;;;;23;ppm;Unknown;66;ppm;Unknown;110;ppm;Unknown;;;;;;;;;;;;;;;;;;;;;;;;;1,5;ppm;INAA;1,5;ppm;INAA;;;;0,29;wt%;TITR;0,68;wt%;TITR;0,29;wt%;TITR;0,68;wt%;TITR;;;
GROSCAMP-W-243877;;GROSSMAN-CAMP;GROSSMAN, 1991;40,1861;-76,8764;0,001;;;CONTINENTAL_RIFT;;;;"AAS; COL; ES; ICP; INAA; TITR; Unknown";WHOLE ROCK;IGNEOUS:VOLCANIC:MAFIC;DIABASE;;52,1;wt%;COL;1,14;wt%;COL;13,8;wt%;COL;;;;2,84;wt%;Unknown;;;;8,1;wt%;TITR;;;;;;;0,19;wt%;AAS;7,73;wt%;AAS;10,9;wt%;Unknown;;;;2,08;wt%;Unknown;0,62;wt%;AAS;0,14;wt%;COL;;;;;;;;;;0,26;wt%;TITR;0,44;wt%;TITR;;;;;;;;;;98;ppm;Unknown;50;ppm;Unknown;103;ppm;Unknown;;;;77;ppm;Unknown;;;;0,067;ppm;AAS;0,04;ppm;INAA;;;;;;;;;;;;;;;;;;;;;;;;;;;;;;;;;;;;;;;;;;;;;;;;;;;;;;;;;;;;;;;;;;;;;;;;;;;;;;;;;;;;;;;;;;;;;;;;;;;;;;;;;;;;;;;;;;;;;;;;;11;ppm;INAA;23;ppm;INAA;;;;13;ppm;INAA;3,5;ppm;INAA;1,1;ppm;INAA;;;;0,63;ppm;INAA;;;;;;;;;;;;;2,3;ppm;INAA;0,32;ppm;INAA;0,02;ppm;TITR;0,02;ppm;INAA;0,01;ppm;INAA;;;;;;;;;;;;;;;;0,067;ppm;AAS;;;;;;;;;;5;ppm;ES;161;ppm;Unknown;;;;;;;;;;;;;50;ppm;Unknown;320;ppm;Unknown;1;ppm;INAA;103;ppm;Unknown;20;ppm;ICP;;;;2,5;ppm;INAA;;;;;;;;;;;;;;;;;;;;;;7,3;ppm;ICP;98;ppm;Unknown;;;;;;;;;;11;ppm;Unknown;9,5;ppm;Unknown;19;ppm;Unknown;;;;;;;;;;0,04;ppm;INAA;;;;37;ppm;INAA;;;;183;ppm;Unknown;0,51;ppm;INAA;2,1;ppm;INAA;;;;;;;0,48;ppm;INAA;;;;;;;21;ppm;Unknown;77;ppm;Unknown;100;ppm;Unknown;;;;;;;;;;;;;;;;;;;;;;;;;;;;;;;;;;0,26;wt%;TITR;0,44;wt%;TITR;0,26;wt%;TITR;0,44;wt%;TITR;;;
GROSCAMP-W-243878;;GROSSMAN-CAMP;GROSSMAN, 1991;40,1867;-76,8764;0,001;;;CONTINENTAL_RIFT;;;;"AAS; COL; ES; ICP; INAA; TITR; Unknown";WHOLE ROCK;IGNEOUS:VOLCANIC:MAFIC;DIABASE;;52,9;wt%;COL;1,5;wt%;COL;16,1;wt%;COL;;;;3,19;wt%;Unknown;;;;7,8;wt%;TITR;;;;;;;0,16;wt%;AAS;4;wt%;AAS;10,1;wt%;Unknown;;;;2,9;wt%;Unknown;0,97;wt%;AAS;0,19;wt%;COL;;;;;;;;;;0,19;wt%;TITR;0,38;wt%;TITR;;;;;;;;;;33;ppm;Unknown;39;ppm;Unknown;85;ppm;Unknown;;;;127;ppm;Unknown;;;;0,092;ppm;AAS;0,03;ppm;INAA;;;;;;;;;;;;;;;;;;;;;;;;;;;;;;;;;;;;;;;;;;;;;;;;;;;;;;;;;;;;;;;;;;;;;;;;;;;;;;;;;;;;;;;;;;;;;;;;;;;;;;;;;;;;;;;;;;;;;;;;;16;ppm;INAA;32;ppm;INAA;;;;18;ppm;INAA;4,7;ppm;INAA;1,38;ppm;INAA;;;;0,81;ppm;INAA;;;;;;;;;;;;;2,9;ppm;INAA;0,41;ppm;INAA;0,01;ppm;TITR;0,03;ppm;INAA;0,05;ppm;INAA;;;;;;;;;;;;;;;;0,092;ppm;AAS;;;;;;;;;;11;ppm;ES;258;ppm;Unknown;;;;;;;;;;;;;39;ppm;Unknown;15;ppm;Unknown;0,93;ppm;INAA;85;ppm;Unknown;23;ppm;ICP;;;;3,6;ppm;INAA;;;;;;;;;;;;;;;;;;;;;;9,9;ppm;ICP;33;ppm;Unknown;;;;;;;;;;13;ppm;Unknown;5,2;ppm;Unknown;31;ppm;Unknown;;;;;;;;;;0,03;ppm;INAA;0,2;ppm;INAA;32;ppm;INAA;;;;234;ppm;Unknown;0,79;ppm;INAA;3,3;ppm;INAA;;;;;;;0,7;ppm;INAA;;;;;;;26;ppm;Unknown;127;ppm;Unknown;127;ppm;Unknown;;;;;;;;;;;;;;;;;;;;;;;;;;;;;;;;;;0,19;wt%;TITR;0,38;wt%;TITR;0,19;wt%;TITR;0,38;wt%;TITR;;;
GROSCAMP-W-243879;;GROSSMAN-CAMP;GROSSMAN, 1991;40,1875;-76,8764;0,001;;;CONTINENTAL_RIFT;;;;"AAS; COL; ES; ICP; INAA; TITR; Unknown";WHOLE ROCK;IGNEOUS:VOLCANIC:MAFIC;DIABASE;;53,4;wt%;COL;1,53;wt%;COL;15;wt%;COL;;;;3,21;wt%;Unknown;;;;8,8;wt%;TITR;;;;;;;0,16;wt%;AAS;3,74;wt%;AAS;9,04;wt%;Unknown;;;;2,6;wt%;Unknown;1,17;wt%;AAS;0,21;wt%;COL;;;;;;;;;;0,2;wt%;TITR;0,74;wt%;TITR;;;;;;;;;;28;ppm;Unknown;42;ppm;Unknown;162;ppm;Unknown;;;;75;ppm;Unknown;5,8;ppm;INAA;0,1;ppm;AAS;0,05;ppm;INAA;;;;;;;;;;;;;;;;;;;;;;;;;;;;;;;;;;;;;;;;;;;;;;;;;;;;;;;;;;;;;;;;;;;;;;;;;;;;;;;;;;;;;;;;;;;;;;;;;;;;;;;;;;;;;;;;;;;;;;;;;16,5;ppm;INAA;34;ppm;INAA;;;;18;ppm;INAA;5;ppm;INAA;1,46;ppm;INAA;;;;0,92;ppm;INAA;;;;;;;;;;;;;3,1;ppm;INAA;0,44;ppm;INAA;;;;0,03;ppm;INAA;0,2;ppm;INAA;;;;;;;;;;;;;;;;0,1;ppm;AAS;;;;5,8;ppm;INAA;;;;11;ppm;ES;300;ppm;Unknown;;;;;;;;;;;;;42;ppm;Unknown;18;ppm;Unknown;1,4;ppm;INAA;162;ppm;Unknown;25;ppm;ICP;;;;3,6;ppm;INAA;;;;;;;;;;;;;;;;;;;;;;12;ppm;ICP;28;ppm;Unknown;;;;;;;;;;12;ppm;Unknown;4,4;ppm;Unknown;42;ppm;Unknown;;;;;;;;;;0,05;ppm;INAA;0,37;ppm;INAA;32;ppm;INAA;;;;222;ppm;Unknown;0,83;ppm;INAA;3,5;ppm;INAA;;;;;;;0,76;ppm;INAA;;;;;;;32;ppm;Unknown;75;ppm;Unknown;143;ppm;Unknown;;;;;;;;;;;;;;;;;;;;;;;;;5,8;ppm;INAA;5,8;ppm;INAA;;;;0,2;wt%;TITR;0,74;wt%;TITR;0,2;wt%;TITR;0,74;wt%;TITR;;;
GROSCAMP-W-243880;;GROSSMAN-CAMP;GROSSMAN, 1991;39,859;-77,2705;0,001;;;CONTINENTAL_RIFT;;;;"AAS; COL; ES; ICP; INAA; TITR; Unknown";WHOLE ROCK;IGNEOUS:VOLCANIC:MAFIC;DIABASE;;46,7;wt%;COL;4,38;wt%;COL;11,8;wt%;COL;;;;3,8;wt%;Unknown;;;;14,6;wt%;TITR;;;;;;;0,24;wt%;AAS;4,04;wt%;AAS;8,19;wt%;Unknown;;;;2,74;wt%;Unknown;1,03;wt%;AAS;0,18;wt%;COL;;;;;;;;;;0,21;wt%;TITR;1,5;wt%;TITR;;;;;;;;;;22;ppm;Unknown;65;ppm;Unknown;66;ppm;Unknown;;;;88;ppm;Unknown;;;;0,038;ppm;AAS;0,04;ppm;INAA;;;;;;;;;;;;;;;;;;;;;;;;;;;;;;;;;;;;;;;;;;;;;;;;;;;;;;;;;;;;;;;;;;;;;;;;;;;;;;;;;;;;;;;;;;;;;;;;;;;;;;;;;;;;;;;;;;;;;;;;;19,5;ppm;INAA;30;ppm;INAA;;;;26;ppm;INAA;7,3;ppm;INAA;2,41;ppm;INAA;;;;1,4;ppm;INAA;;;;;;;;;;;;;5,4;ppm;INAA;0,82;ppm;INAA;;;;0,03;ppm;INAA;0,35;ppm;INAA;;;;;;;;;;;;;;;;0,038;ppm;AAS;;;;;;;;;;25;ppm;ES;254;ppm;Unknown;;;;;;;;;;;;;65;ppm;Unknown;6,2;ppm;Unknown;;;;66;ppm;Unknown;25;ppm;ICP;;;;3;ppm;INAA;;;;;;;;;;;;;;;;;;;;;;14;ppm;ICP;22;ppm;Unknown;;;;;;;;;;130;ppm;Unknown;9,1;ppm;Unknown;25;ppm;Unknown;;;;;;;;;;0,04;ppm;INAA;0,29;ppm;INAA;48;ppm;INAA;;;;206;ppm;Unknown;1;ppm;INAA;1,9;ppm;INAA;;;;;;;;;;;;;;;;41;ppm;Unknown;88;ppm;Unknown;104;ppm;Unknown;;;;;;;;;;;;;;;;;;;;;;;;;;;;;;;;;;0,21;wt%;TITR;1,5;wt%;TITR;0,21;wt%;TITR;1,5;wt%;TITR;;;
GROSCAMP-W-243882;;GROSSMAN-CAMP;GROSSMAN, 1991;39,8111;-77,2083;0,001;;;CONTINENTAL_RIFT;;;;"AAS; COL; ES; ICP; INAA; TITR; Unknown";WHOLE ROCK;IGNEOUS:VOLCANIC:MAFIC;DIABASE;;52,3;wt%;COL;1,13;wt%;COL;13,9;wt%;COL;;;;2,43;wt%;Unknown;;;;8,4;wt%;TITR;;;;;;;0,17;wt%;AAS;7,72;wt%;AAS;11,1;wt%;Unknown;;;;2,06;wt%;Unknown;0,6;wt%;AAS;0,15;wt%;COL;;;;;;;;;;;;;0,53;wt%;TITR;;;;;;;;;;93;ppm;Unknown;48;ppm;Unknown;124;ppm;Unknown;;;;78;ppm;Unknown;;;;0,042;ppm;AAS;0,05;ppm;INAA;;;;;;;;;;;;;;;;;;;;;;;;;;;;;;;;;;;;;;;;;;;;;;;;;;;;;;;;;;;;;;;;;;;;;;;;;;;;;;;;;;;;;;;;;;;;;;;;;;;;;;;;;;;;;;;;;;;;;;;;;11;ppm;INAA;22;ppm;INAA;;;;13;ppm;INAA;3,5;ppm;INAA;1;ppm;INAA;;;;0,63;ppm;INAA;;;;;;;;;;;;;2,1;ppm;INAA;0,32;ppm;INAA;0,05;ppm;TITR;0,02;ppm;INAA;0,01;ppm;INAA;;;;;;;;;;;;;;;;0,042;ppm;AAS;;;;;;;;;;5,1;ppm;ES;152;ppm;Unknown;;;;;;;;;;;;;48;ppm;Unknown;320;ppm;Unknown;0,97;ppm;INAA;124;ppm;Unknown;19;ppm;ICP;;;;2,4;ppm;INAA;;;;;;;;;;;;;;;;;;;;;;7,2;ppm;ICP;93;ppm;Unknown;;;;;;;;;;4,5;ppm;Unknown;3,5;ppm;Unknown;20;ppm;Unknown;;;;;;;;;;0,05;ppm;INAA;0,25;ppm;INAA;37;ppm;INAA;;;;178;ppm;Unknown;0,53;ppm;INAA;2,1;ppm;INAA;;;;;;;0,59;ppm;INAA;;;;;;;21;ppm;Unknown;78;ppm;Unknown;105;ppm;Unknown;;;;;;;;;;;;;;;;;;;;;;;;;;;;;;;;;;;;;0,53;wt%;TITR;;;;0,53;wt%;TITR;;;
GROSCAMP-W-243883;;GROSSMAN-CAMP;GROSSMAN, 1991;39,8111;-77,2083;0,001;;;CONTINENTAL_RIFT;;;;"AAS; COL; ES; ICP; INAA; TITR; Unknown";WHOLE ROCK;IGNEOUS:VOLCANIC:MAFIC;DIABASE;;52,8;wt%;COL;1,15;wt%;COL;14;wt%;COL;;;;1,96;wt%;Unknown;;;;9,2;wt%;TITR;;;;;;;0,18;wt%;AAS;7,8;wt%;AAS;11,1;wt%;Unknown;;;;2,06;wt%;Unknown;0,58;wt%;AAS;0,15;wt%;COL;;;;;;;;;;;;;0,15;wt%;TITR;;;;;;;;;;89;ppm;Unknown;49;ppm;Unknown;106;ppm;Unknown;;;;76;ppm;Unknown;1,7;ppm;INAA;0,042;ppm;AAS;0,05;ppm;INAA;;;;;;;;;;;;;;;;;;;;;;;;;;;;;;;;;;;;;;;;;;;;;;;;;;;;;;;;;;;;;;;;;;;;;;;;;;;;;;;;;;;;;;;;;;;;;;;;;;;;;;;;;;;;;;;;;;;;;;;;;11;ppm;INAA;23;ppm;INAA;;;;12;ppm;INAA;3,6;ppm;INAA;1,1;ppm;INAA;;;;0,66;ppm;INAA;;;;;;;;;;;;;2,2;ppm;INAA;0,36;ppm;INAA;0,01;ppm;TITR;0,02;ppm;INAA;0,01;ppm;INAA;;;;;;;;;;;;;;;;0,042;ppm;AAS;;;;1,7;ppm;INAA;;;;7,3;ppm;ES;152;ppm;Unknown;;;;;;;;;;;;;49;ppm;Unknown;310;ppm;Unknown;0,88;ppm;INAA;106;ppm;Unknown;19;ppm;ICP;;;;2,5;ppm;INAA;;;;;;;;;;;;;;;;;;;;;;7;ppm;ICP;89;ppm;Unknown;;;;;;;;;;3,2;ppm;Unknown;5,5;ppm;Unknown;22;ppm;Unknown;;;;;;;;;;0,05;ppm;INAA;;;;38;ppm;INAA;;;;176;ppm;Unknown;0,52;ppm;INAA;2,2;ppm;INAA;;;;;;;0,66;ppm;INAA;;;;;;;21;ppm;Unknown;76;ppm;Unknown;104;ppm;Unknown;;;;;;;;;;;;;;;;;;;;;;;;;1,7;ppm;INAA;1,7;ppm;INAA;;;;;;;0,15;wt%;TITR;;;;0,15;wt%;TITR;;;
GROSCAMP-W-243884;;GROSSMAN-CAMP;GROSSMAN, 1991;39,8111;-77,2083;0,001;;;CONTINENTAL_RIFT;;;;"AAS; COL; ES; ICP; INAA; TITR; Unknown";WHOLE ROCK;IGNEOUS:VOLCANIC:MAFIC;DIABASE;;52,2;wt%;COL;0,63;wt%;COL;12,5;wt%;COL;;;;1,67;wt%;Unknown;;;;7,6;wt%;TITR;;;;;;;0,17;wt%;AAS;11,3;wt%;AAS;12,7;wt%;Unknown;;;;1,44;wt%;Unknown;0,28;wt%;AAS;0,07;wt%;COL;;;;;;;;;;0,01;wt%;TITR;0,29;wt%;TITR;;;;;;;;;;135;ppm;Unknown;52;ppm;Unknown;64;ppm;Unknown;;;;58;ppm;Unknown;;;;0,017;ppm;AAS;0,05;ppm;INAA;;;;;;;;;;;;;;;;;;;;;;;;;;;;;;;;;;;;;;;;;;;;;;;;;;;;;;;;;;;;;;;;;;;;;;;;;;;;;;;;;;;;;;;;;;;;;;;;;;;;;;;;;;;;;;;;;;;;;;;;;5,2;ppm;INAA;12;ppm;INAA;;;;5,6;ppm;INAA;1,86;ppm;INAA;0,62;ppm;INAA;;;;0,37;ppm;INAA;;;;;;;;;;;;;1,3;ppm;INAA;0,2;ppm;INAA;;;;0,01;ppm;INAA;;;;;;;;;;;;;;;;;;;0,017;ppm;AAS;;;;;;;;;;4,9;ppm;ES;72;ppm;Unknown;;;;;;;;;;;;;52;ppm;Unknown;630;ppm;Unknown;0,46;ppm;INAA;64;ppm;Unknown;16;ppm;ICP;;;;1,2;ppm;INAA;;;;;;;;;;;;;;;;;;;;;;3,3;ppm;ICP;135;ppm;Unknown;;;;;;;;;;0,5;ppm;Unknown;5,8;ppm;Unknown;12;ppm;Unknown;;;;;;;;;;0,05;ppm;INAA;0,15;ppm;INAA;43;ppm;INAA;;;;147;ppm;Unknown;0,23;ppm;INAA;1;ppm;INAA;;;;;;;;;;;;;;;;13;ppm;Unknown;58;ppm;Unknown;55;ppm;Unknown;;;;;;;;;;;;;;;;;;;;;;;;;;;;;;;;;;0,01;wt%;TITR;0,29;wt%;TITR;0,01;wt%;TITR;0,29;wt%;TITR;;;
GROSCAMP-W-243885;;GROSSMAN-CAMP;GROSSMAN, 1991;39,8111;-77,2083;0,001;;;CONTINENTAL_RIFT;;;;"AAS; COL; ES; ICP; INAA; TITR; Unknown";WHOLE ROCK;IGNEOUS:VOLCANIC:MAFIC;DIABASE;;52,4;wt%;COL;0,58;wt%;COL;12,6;wt%;COL;;;;1,62;wt%;Unknown;;;;7,2;wt%;TITR;;;;;;;0,17;wt%;AAS;11,6;wt%;AAS;12,7;wt%;Unknown;;;;1,44;wt%;Unknown;0,27;wt%;AAS;0,06;wt%;COL;;;;;;;;;;0,02;wt%;TITR;0,27;wt%;TITR;;;;;;;;;;140;ppm;Unknown;51;ppm;Unknown;64;ppm;Unknown;;;;61;ppm;Unknown;;;;0,015;ppm;AAS;0,03;ppm;INAA;;;;;;;;;;;;;;;;;;;;;;;;;;;;;;;;;;;;;;;;;;;;;;;;;;;;;;;;;;;;;;;;;;;;;;;;;;;;;;;;;;;;;;;;;;;;;;;;;;;;;;;;;;;;;;;;;;;;;;;;;4,8;ppm;INAA;11;ppm;INAA;;;;6,9;ppm;INAA;1,71;ppm;INAA;0,61;ppm;INAA;;;;0,37;ppm;INAA;;;;;;;;;;;;;1,2;ppm;INAA;0,19;ppm;INAA;;;;0,01;ppm;INAA;;;;;;;;;;;;;;;;;;;0,015;ppm;AAS;;;;;;;;;;9;ppm;ES;76;ppm;Unknown;;;;;;;;;;;;;51;ppm;Unknown;700;ppm;Unknown;0,4;ppm;INAA;64;ppm;Unknown;15;ppm;ICP;;;;1,1;ppm;INAA;;;;;;;;;;;;;;;;;;;;;;2,7;ppm;ICP;140;ppm;Unknown;;;;;;;;;;1,5;ppm;Unknown;15;ppm;Unknown;11;ppm;Unknown;;;;;;;;;;0,03;ppm;INAA;;;;42;ppm;INAA;;;;147;ppm;Unknown;0,19;ppm;INAA;0,82;ppm;INAA;;;;;;;;;;;;;;;;11;ppm;Unknown;61;ppm;Unknown;54;ppm;Unknown;;;;;;;;;;;;;;;;;;;;;;;;;;;;;;;;;;0,02;wt%;TITR;0,27;wt%;TITR;0,02;wt%;TITR;0,27;wt%;TITR;;;