SAMPLE ID;IGSN;EXPEDITION ID;REFERENCES;LATITUDE;LONGITUDE;LOC PREC;MIN ELEVATION;MAX ELEVATION;TECTONIC SETTING;MIN AGE;AGE;MAX AGE;METHOD;ANALYZED MATERIAL;ROCK TYPE;ROCK NAME;MINERAL;SIO2;SIO2 Units;SIO2 Method;TIO2;TIO2 Units;TIO2 Method;AL2O3;AL2O3 Units;AL2O3 Method;CR2O3;CR2O3 Units;CR2O3 Method;FE2O3;FE2O3 Units;FE2O3 Method;FE2O3T;FE2O3T Units;FE2O3T Method;FEO;FEO Units;FEO Method;FEOT;FEOT Units;FEOT Method;NIO;NIO Units;NIO Method;MNO;MNO Units;MNO Method;MGO;MGO Units;MGO Method;CAO;CAO Units;CAO Method;SRO;SRO Units;SRO Method;NA2O;NA2O Units;NA2O Method;K2O;K2O Units;K2O Method;P2O5;P2O5 Units;P2O5 Method;BAO;BAO Units;BAO Method;LOI;LOI Units;LOI Method;H2O;H2O Units;H2O Method;H2O_M;H2O_M Units;H2O_M Method;H2O_P;H2O_P Units;H2O_P Method;SO3;SO3 Units;SO3 Method;COO;COO Units;COO Method;MN;MN Units;MN Method;NI;NI Units;NI Method;CO;CO Units;CO Method;CU;CU Units;CU Method;CD;CD Units;CD Method;ZN;ZN Units;ZN Method;AS;AS Units;AS Method;AG;AG Units;AG Method;S;S Units;S Method;ZRO2;ZRO2 Units;ZRO2 Method;AL;AL Units;AL Method;CA;CA Units;CA Method;SR87_SR86;SR87_SR86 Units;SR87_SR86 Method;SR87_SR86_INI;SR87_SR86_INI Units;SR87_SR86_INI Method;RB87_SR86;RB87_SR86 Units;RB87_SR86 Method;ND143_ND144;ND143_ND144 Units;ND143_ND144 Method;ND143_ND144_INI;ND143_ND144_INI Units;ND143_ND144_INI Method;SM147_ND144;SM147_ND144 Units;SM147_ND144 Method;E_ND;E_ND Units;E_ND Method;E_ND_INI;E_ND_INI Units;E_ND_INI Method;PB204_PB206;PB204_PB206 Units;PB204_PB206 Method;PB206_PB204;PB206_PB204 Units;PB206_PB204 Method;PB206_PB204_INI;PB206_PB204_INI Units;PB206_PB204_INI Method;PB207_PB204;PB207_PB204 Units;PB207_PB204 Method;PB207_PB204_INI;PB207_PB204_INI Units;PB207_PB204_INI Method;PB207_PB206;PB207_PB206 Units;PB207_PB206 Method;PB208_PB204;PB208_PB204 Units;PB208_PB204 Method;PB208_PB204_INI;PB208_PB204_INI Units;PB208_PB204_INI Method;PB208_PB206;PB208_PB206 Units;PB208_PB206 Method;HF176_HF177;HF176_HF177 Units;HF176_HF177 Method;RE187_OS188;RE187_OS188 Units;RE187_OS188 Method;OS187_OS188;OS187_OS188 Units;OS187_OS188 Method;OS187_OS188_INI;OS187_OS188_INI Units;OS187_OS188_INI Method;G_OS;G_OS Units;G_OS Method;G_OS_INI;G_OS_INI Units;G_OS_INI Method;ND143_ND144_INI;ND143_ND144_INI Units;ND143_ND144_INI Method;PB206_PB204_INI;PB206_PB204_INI Units;PB206_PB204_INI Method;PB207_PB204_INI;PB207_PB204_INI Units;PB207_PB204_INI Method;PB208_PB204_INI;PB208_PB204_INI Units;PB208_PB204_INI Method;SR87_SR86_INI;SR87_SR86_INI Units;SR87_SR86_INI Method;HE;HE Units;HE Method;HE3;HE3 Units;HE3 Method;HE3_HE4_R_RA;HE3_HE4_R_RA Units;HE3_HE4_R_RA Method;AR36;AR36 Units;AR36 Method;AR40;AR40 Units;AR40 Method;AR40_AR36;AR40_AR36 Units;AR40_AR36 Method;NE20;NE20 Units;NE20 Method;NE20_NE22;NE20_NE22 Units;NE20_NE22 Method;NE21_NE22;NE21_NE22 Units;NE21_NE22 Method;LA;LA Units;LA Method;CE;CE Units;CE Method;PR;PR Units;PR Method;ND;ND Units;ND Method;SM;SM Units;SM Method;EU;EU Units;EU Method;GD;GD Units;GD Method;TB;TB Units;TB Method;DY;DY Units;DY Method;HO;HO Units;HO Method;ER;ER Units;ER Method;TM;TM Units;TM Method;YB;YB Units;YB Method;LU;LU Units;LU Method;CO2;CO2 Units;CO2 Method;F;F Units;F Method;CL;CL Units;CL Method;U238_PB204;U238_PB204 Units;U238_PB204 Method;TH230_TH232;TH230_TH232 Units;TH230_TH232 Method;RA226_ACTIVITY;RA226_ACTIVITY Units;RA226_ACTIVITY Method;PB210_RA226;PB210_RA226 Units;PB210_RA226 Method;PB210_ACTIVITY;PB210_ACTIVITY Units;PB210_ACTIVITY Method;AG;AG Units;AG Method;AL;AL Units;AL Method;AS;AS Units;AS Method;AU;AU Units;AU Method;B;B Units;B Method;BA;BA Units;BA Method;BE;BE Units;BE Method;BI;BI Units;BI Method;CA;CA Units;CA Method;CD;CD Units;CD Method;CO;CO Units;CO Method;CR;CR Units;CR Method;CS;CS Units;CS Method;CU;CU Units;CU Method;GA;GA Units;GA Method;GER;GER Units;GER Method;HF;HF Units;HF Method;INDIUM;INDIUM Units;INDIUM Method;IR;IR Units;IR Method;K;K Units;K Method;LI;LI Units;LI Method;MN;MN Units;MN Method;MO;MO Units;MO Method;NA;NA Units;NA Method;NB;NB Units;NB Method;NI;NI Units;NI Method;OS;OS Units;OS Method;P;P Units;P Method;PB;PB Units;PB Method;PD;PD Units;PD Method;PT;PT Units;PT Method;RB;RB Units;RB Method;RE;RE Units;RE Method;RH;RH Units;RH Method;RU;RU Units;RU Method;S;S Units;S Method;SB;SB Units;SB Method;SC;SC Units;SC Method;SN;SN Units;SN Method;SR;SR Units;SR Method;TA;TA Units;TA Method;TH;TH Units;TH Method;TI;TI Units;TI Method;TL;TL Units;TL Method;U;U Units;U Method;V;V Units;V Method;W;W Units;W Method;Y;Y Units;Y Method;ZN;ZN Units;ZN Method;ZR;ZR Units;ZR Method;DELTA_O18;DELTA_O18 Units;DELTA_O18 Method;DELTA_C13;DELTA_C13 Units;DELTA_C13 Method;DELTA_MO98;DELTA_MO98 Units;DELTA_MO98 Method;DELTA_ZN66;DELTA_ZN66 Units;DELTA_ZN66 Method;DELTA_ZN68;DELTA_ZN68 Units;DELTA_ZN68 Method;OS188;OS188 Units;OS188 Method;FE3P_FET;FE3P_FET Units;FE3P_FET Method;TI;TI Units;TI Method;AS;AS Units;AS Method;AS;AS Units;AS Method;GER;GER Units;GER Method;H2O_M;H2O_M Units;H2O_M Method;H2O_P;H2O_P Units;H2O_P Method;H2O_M;H2O_M Units;H2O_M Method;H2O_P;H2O_P Units;H2O_P Method;INDIUM;INDIUM Units;INDIUM Method
COHTANZ-BD-728;;nr;COHEN, 1984;-3,3667;36,4333;0,0001;;;CONTINENTAL_RIFT;;;;"MS; Unknown";WHOLE ROCK;METAMORPHIC;GRANULITE;;;;;;;;;;;;;;;;;;;;;;;;;;;;;;;;;;;;;;;;;;;;;;;;;;;;;;;;;;;;;;;;;;;;;;;;;;;;;;;;;;;;;;;;;;;;;;;;;;;;;;;;;;;0,70405;Not Applicable;MS;;;;0,061;Not Applicable;MS;0,51236;Not Applicable;MS;;;;0,141;Not Applicable;MS;;;;;;;;;;16,65;Not Applicable;MS;;;;15,44;Not Applicable;MS;;;;;;;36,72;Not Applicable;MS;;;;;;;;;;;;;;;;;;;;;;;;;;;;;;;;;;;;;;;;;;;;;;;;;;;;;;;;;;;;;;;;;;;;;;;;;;;;5,518;ppm;Unknown;1,287;ppm;Unknown;;;;;;;;;;;;;;;;;;;;;;;;;;;;;;;;;;;;;8,85;Not Applicable;MS;;;;;;;;;;;;;;;;;;;;;;;;;;;;;;;;;;;;;;;;;;;;;;;;;;;;;;;;;;;;;;;;;;;;;;;;;;;;;;;;;;;;;;;;;;;;;;;;;1,589;ppm;Unknown;;;;;;;25,61;ppm;Unknown;;;;;;;;;;;;;;;;;;;;;;1222;ppm;Unknown;;;;;;;;;;;;;0,233;ppm;Unknown;;;;;;;;;;;;;;;;;;;;;;;;;;;;;;;;;;;;;;;;;;;;;;;;;;;;;;;;;;;;;;;
COHTANZ-BD-780;;nr;COHEN, 1984;-3,3667;36,4333;0,0001;;;CONTINENTAL_RIFT;;;;"MS; Unknown";WHOLE ROCK;IGNEOUS:VOLCANIC:MAFIC;BASALT;;;;;;;;;;;;;;;;;;;;;;;;;;;;;;;;;;;;;;;;;;;;;;;;;;;;;;;;;;;;;;;;;;;;;;;;;;;;;;;;;;;;;;;;;;;;;;;;;;;;;;;;;;;0,70348;Not Applicable;MS;;;;0,152;Not Applicable;MS;0,51276;Not Applicable;MS;;;;0,096;Not Applicable;MS;;;;;;;;;;20,6;Not Applicable;MS;;;;15,77;Not Applicable;MS;;;;;;;40,3;Not Applicable;MS;;;;;;;;;;;;;;;;;;;;;;;;;;;;;;;;;;;;;;;;;;;;;;;;;;;;;;;;;;;;;;;;;;;;;;;;;;;;52,01;ppm;Unknown;8,225;ppm;Unknown;;;;;;;;;;;;;;;;;;;;;;;;;;;;;;;;;;;;;52,61;Not Applicable;MS;;;;;;;;;;;;;;;;;;;;;;;;;;;;;;;;;;;;;;;;;;;;;;;;;;;;;;;;;;;;;;;;;;;;;;;;;;;;;;;;;;;;;;;;;;;;;;;;;2,099;ppm;Unknown;;;;;;;24,72;ppm;Unknown;;;;;;;;;;;;;;;;;;;;;;470,2;ppm;Unknown;;;;;;;;;;;;;1,645;ppm;Unknown;;;;;;;;;;;;;;;;;;;;;;;;;;;;;;;;;;;;;;;;;;;;;;;;;;;;;;;;;;;;;;;
COHTANZ-BD-786;;nr;COHEN, 1984;-3,3667;36,4333;0,0001;;;CONTINENTAL_RIFT;;;;"MS; Unknown";WHOLE ROCK;METAMORPHIC;GRANULITE;;;;;;;;;;;;;;;;;;;;;;;;;;;;;;;;;;;;;;;;;;;;;;;;;;;;;;;;;;;;;;;;;;;;;;;;;;;;;;;;;;;;;;;;;;;;;;;;;;;;;;;;;;;0,70434;Not Applicable;MS;;;;0,093;Not Applicable;MS;0,51209;Not Applicable;MS;;;;0,147;Not Applicable;MS;;;;;;;;;;16,42;Not Applicable;MS;;;;15,46;Not Applicable;MS;;;;;;;36,42;Not Applicable;MS;;;;;;;;;;;;;;;;;;;;;;;;;;;;;;;;;;;;;;;;;;;;;;;;;;;;;;;;;;;;;;;;;;;;;;;;;;;;4,221;ppm;Unknown;1,029;ppm;Unknown;;;;;;;;;;;;;;;;;;;;;;;;;;;;;;;;;;;;;44,18;Not Applicable;MS;;;;;;;;;;;;;;;;;;;;;;;;;;;;;;;;;;;;;;;;;;;;;;;;;;;;;;;;;;;;;;;;;;;;;;;;;;;;;;;;;;;;;;;;;;;;;;;;;1,136;ppm;Unknown;;;;;;;37,83;ppm;Unknown;;;;;;;;;;;;;;;;;;;;;;1182;ppm;Unknown;;;;;;;;;;;;;0,838;ppm;Unknown;;;;;;;;;;;;;;;;;;;;;;;;;;;;;;;;;;;;;;;;;;;;;;;;;;;;;;;;;;;;;;;
COHTANZ-BD-798;;nr;COHEN, 1984;-3,3667;36,4333;0,0001;;;CONTINENTAL_RIFT;;;;"MS; Unknown";WHOLE ROCK;METAMORPHIC;GRANULITE;;;;;;;;;;;;;;;;;;;;;;;;;;;;;;;;;;;;;;;;;;;;;;;;;;;;;;;;;;;;;;;;;;;;;;;;;;;;;;;;;;;;;;;;;;;;;;;;;;;;;;;;;;;0,70359;Not Applicable;MS;;;;0,044;Not Applicable;MS;0,51154;Not Applicable;MS;;;;0,11;Not Applicable;MS;;;;;;;;;;17,5;Not Applicable;MS;;;;15,65;Not Applicable;MS;;;;;;;37,94;Not Applicable;MS;;;;;;;;;;;;;;;;;;;;;;;;;;;;;;;;;;;;;;;;;;;;;;;;;;;;;;;;;;;;;;;;;;;;;;;;;;;;1,825;ppm;Unknown;0,3305;ppm;Unknown;;;;;;;;;;;;;;;;;;;;;;;;;;;;;;;;;;;;;3,57;Not Applicable;MS;;;;;;;;;;;;;;;;;;;;;;;;;;;;;;;;;;;;;;;;;;;;;;;;;;;;;;;;;;;;;;;;;;;;;;;;;;;;;;;;;;;;;;;;;;;;;;;;;0,926;ppm;Unknown;;;;;;;20,12;ppm;Unknown;;;;;;;;;;;;;;;;;;;;;;1333;ppm;Unknown;;;;;;;;;;;;;0,053;ppm;Unknown;;;;;;;;;;;;;;;;;;;;;;;;;;;;;;;;;;;;;;;;;;;;;;;;;;;;;;;;;;;;;;;
DAWSTAN-LB-SD4208;;nr;DAWSON, 1999;-4,5671;35,4313;0,0001;;;CONTINENTAL_RIFT;;;;XRF;WHOLE ROCK;IGNEOUS:PLUTONIC:ULTRAMAFIC;PERIDOTITE;;38,82;wt%;XRF;0,3;wt%;XRF;0,59;wt%;XRF;;;;15,05;wt%;XRF;;;;;;;;;;;;;0,17;wt%;XRF;45,48;wt%;XRF;0,14;wt%;XRF;;;;0,04;wt%;XRF;0,05;wt%;XRF;0,02;wt%;XRF;;;;;;;;;;;;;;;;;;;;;;;;;2655;ppm;XRF;;;;12,4;ppm;XRF;;;;111,4;ppm;XRF;;;;;;;;;;;;;;;;;;;;;;;;;;;;;;;;;;;;;;;;;;;;;;;;;;;;;;;;;;;;;;;;;;;;;;;;;;;;;;;;;;;;;;;;;;;;;;;;;;;;;;;;;;;;;;;;;;;;;;;;;;;;;;;;;;;;;;;;;;;;;;;;;;;;;;;;;;;;;;;;;;;;;;;;;;;;;;;;;;;;;;;;;;;;;;;;;;;;;;;;;;;;;;;;;;;331;ppm;XRF;;;;;;;;;;;;;;;;9493;ppm;XRF;;;;12,4;ppm;XRF;;;;;;;;;;;;;;;;;;;;;;;;;;;;;;;3,1;ppm;XRF;2655;ppm;XRF;;;;;;;;;;;;;;;;3,4;ppm;XRF;;;;;;;;;;;;;;;;;;;;;;50,4;ppm;XRF;;;;;;;;;;;;;;;;45;ppm;XRF;;;;1,8;ppm;XRF;111,4;ppm;XRF;1,9;ppm;XRF;;;;;;;;;;;;;;;;;;;;;;;;;;;;;;;;;;;;;;;;;;;;;;;;
DAWSTAN-LB-SMH4209;;nr;DAWSON, 1999;-4,5671;35,4313;0,0001;;;CONTINENTAL_RIFT;;;;XRF;WHOLE ROCK;IGNEOUS:PLUTONIC:ULTRAMAFIC;PERIDOTITE;;42,72;wt%;XRF;0,21;wt%;XRF;0,87;wt%;XRF;;;;9,87;wt%;XRF;;;;;;;;;;;;;0,14;wt%;XRF;45,61;wt%;XRF;0,51;wt%;XRF;;;;0,05;wt%;XRF;0,32;wt%;XRF;0,02;wt%;XRF;;;;;;;;;;;;;;;;;;;;;;;;;2501;ppm;XRF;;;;8,5;ppm;XRF;;;;74,7;ppm;XRF;;;;;;;;;;;;;;;;;;;;;;;;;;;;;;;;;;;;;;;;;;;;;;;;;;;;;;;;;;;;;;;;;;;;;;;;;;;;;;;;;;;;;;;;;;;;;;;;;;;;;;;;;;;;;;;;;;;;;;;;;;;;;;;;;;;;;;;;;;;;;;;;;;;;;;;;;;;;;;;;;;;;;;;;;;;;;;;;;;;;;;;;;;;;;;;;;;;;;;;;;;;;;;;;;;;711;ppm;XRF;;;;;;;;;;;;;;;;2712;ppm;XRF;;;;8,5;ppm;XRF;;;;;;;;;;;;;;;;;;;;;;;;;;;;;;;2,3;ppm;XRF;2501;ppm;XRF;;;;;;;;;;;;;;;;10,5;ppm;XRF;;;;;;;;;;;;;;;;2;ppm;XRF;;;;43,3;ppm;XRF;;;;;;;;;;;;;;;;30,4;ppm;XRF;;;;0,5;ppm;XRF;74,7;ppm;XRF;4,1;ppm;XRF;;;;;;;;;;;;;;;;;;;;;;;;;;;;;;;;;;;;;;;;;;;;;;;;
DAWSTAN-LB-SML4210;;nr;DAWSON, 1999;-4,5671;35,4313;0,0001;;;CONTINENTAL_RIFT;;;;XRF;WHOLE ROCK;IGNEOUS:PLUTONIC:ULTRAMAFIC;PERIDOTITE;;43,91;wt%;XRF;0,28;wt%;XRF;0,91;wt%;XRF;;;;7,25;wt%;XRF;;;;;;;;;;;;;0,11;wt%;XRF;54,62;wt%;XRF;0,83;wt%;XRF;;;;0,11;wt%;XRF;0,37;wt%;XRF;0,04;wt%;XRF;;;;;;;;;;;;;;;;;;;;;;;;;2462;ppm;XRF;;;;4,3;ppm;XRF;;;;46,1;ppm;XRF;;;;;;;;;;;;;;;;;;;;;;;;;;;;;;;;;;;;;;;;;;;;;;;;;;;;;;;;;;;;;;;;;;;;;;;;;;;;;;;;;;;;;;;;;;;;;;;;;;;;;;;;;;;;;;;;;;;;;;;;;;;;;;;;;;;;;;;;;;;;;;;;;;;;;;;;;;;;;;;;;;;;;;;;;;;;;;;;;;;;;;;;;;;;;;;;;;;;;;;;;;;;;;;;;;;260;ppm;XRF;;;;;;;;;;;;;;;;2547;ppm;XRF;;;;4,3;ppm;XRF;;;;;;;;;;;;;;;;;;;;;;;;;;;;;;;1;ppm;XRF;2462;ppm;XRF;;;;;;;;;;;;;;;;9,6;ppm;XRF;;;;;;;;;;;;;;;;3,6;ppm;XRF;;;;51,4;ppm;XRF;;;;;;;;;;;;;;;;36,8;ppm;XRF;;;;0,9;ppm;XRF;46,1;ppm;XRF;13;ppm;XRF;;;;;;;;;;;;;;;;;;;;;;;;;;;;;;;;;;;;;;;;;;;;;;;;
DAWSTAN-LB-SML4213;;nr;DAWSON, 1999;-4,5671;35,4313;0,0001;;;CONTINENTAL_RIFT;;;;XRF;WHOLE ROCK;IGNEOUS:PLUTONIC:ULTRAMAFIC;PERIDOTITE;;42,27;wt%;XRF;0,19;wt%;XRF;0,78;wt%;XRF;;;;9,42;wt%;XRF;;;;;;;;;;;;;0,13;wt%;XRF;46,31;wt%;XRF;0,55;wt%;XRF;;;;0,04;wt%;XRF;0,28;wt%;XRF;0,02;wt%;XRF;;;;;;;;;;;;;;;;;;;;;;;;;2580;ppm;XRF;;;;9,5;ppm;XRF;;;;67,1;ppm;XRF;;;;;;;;;;;;;;;;;;;;;;;;;;;;;;;;;;;;;;;;;;;;;;;;;;;;;;;;;;;;;;;;;;;;;;;;;;;;;;;;;;;;;;;;;;;;;;;;;;;;;;;;;;;;;;;;;;;;;;;;;;;;;;;;;;;;;;;;;;;;;;;;;;;;;;;;;;;;;;;;;;;;;;;;;;;;;;;;;;;;;;;;;;;;;;;;;;;;;;;;;;;;;;;;;;;496;ppm;XRF;;;;;;;;;;;;;;;;1701;ppm;XRF;;;;9,5;ppm;XRF;;;;;;;;;;;;;;;;;;;;;;;;;;;;;;;2,1;ppm;XRF;2580;ppm;XRF;;;;;;;;;;;;;;;;10,5;ppm;XRF;;;;;;;;;;;;;;;;0,5;ppm;XRF;;;;35,6;ppm;XRF;;;;;;;;;;;;;;;;27,4;ppm;XRF;;;;0,9;ppm;XRF;67,1;ppm;XRF;3,4;ppm;XRF;;;;;;;;;;;;;;;;;;;;;;;;;;;;;;;;;;;;;;;;;;;;;;;;
DOSTNS-NMB-NE-1;;DOSTAL_NOVA_SCOTIA;DOSTAL, 1984;45,25;-64,75;1;;;CONTINENTAL_RIFT;;;;"AAS; INAA; Unknown; XRF";WHOLE ROCK;IGNEOUS:VOLCANIC:MAFIC;BASALT;;49,36;wt%;Unknown;1,26;wt%;Unknown;14,95;wt%;Unknown;;;;;;;10,54;wt%;Unknown;;;;;;;;;;0,17;wt%;Unknown;6,25;wt%;Unknown;9,33;wt%;Unknown;;;;2,72;wt%;Unknown;0,83;wt%;AAS;0,16;wt%;Unknown;;;;;;;;;;3,32;wt%;Unknown;1,18;wt%;Unknown;;;;;;;;;;57;ppm;AAS;44;ppm;AAS;136;ppm;AAS;;;;84;ppm;AAS;;;;;;;;;;;;;;;;;;;;;;;;;;;;;;;;;;;;;;;;;;;;;;;;;;;;;;;;;;;;;;;;;;;;;;;;;;;;;;;;;;;;;;;;;;;;;;;;;;;;;;;;;;;;;;;;;;;;;;;;;;;;;;;;;;12,7;ppm;Unknown;26,6;ppm;Unknown;;;;;;;3,64;ppm;Unknown;1,14;ppm;Unknown;;;;0,7;ppm;Unknown;;;;;;;;;;;;;2,25;ppm;Unknown;0,36;ppm;Unknown;;;;;;;;;;;;;;;;;;;;;;;;;;;;;;;;;;;;;;;;163;ppm;XRF;;;;;;;;;;;;;44;ppm;AAS;122;ppm;AAS;;;;136;ppm;AAS;;;;;;;3;ppm;INAA;;;;;;;;;;32;ppm;AAS;;;;;;;;;;10;ppm;XRF;57;ppm;AAS;;;;;;;;;;;;;;;;20;ppm;AAS;;;;;;;;;;;;;;;;34;ppm;INAA;;;;203;ppm;AAS;;;;2,6;ppm;INAA;;;;;;;;;;268;ppm;AAS;;;;;;;84;ppm;AAS;119;ppm;XRF;;;;;;;;;;;;;;;;;;;;;;;;;;;;;;;;;;3,32;wt%;Unknown;1,18;wt%;Unknown;3,32;wt%;Unknown;1,18;wt%;Unknown;;;
DOSTNS-NMB-NE-2;;DOSTAL_NOVA_SCOTIA;DOSTAL, 1984;45,25;-64,75;1;;;CONTINENTAL_RIFT;;;;"AAS; INAA; Unknown; XRF";WHOLE ROCK;IGNEOUS:VOLCANIC:MAFIC;BASALT;;51,6;wt%;Unknown;1,33;wt%;Unknown;14,94;wt%;Unknown;;;;;;;11,11;wt%;Unknown;;;;;;;;;;0,18;wt%;Unknown;6,17;wt%;Unknown;9,97;wt%;Unknown;;;;2,3;wt%;Unknown;0,54;wt%;AAS;0,14;wt%;Unknown;;;;;;;;;;1,44;wt%;Unknown;0,51;wt%;Unknown;;;;;;;;;;57;ppm;AAS;44;ppm;AAS;137;ppm;AAS;;;;100;ppm;AAS;;;;;;;;;;;;;;;;;;;;;;;;;;;;;;;;;;;;;;;;;;;;;;;;;;;;;;;;;;;;;;;;;;;;;;;;;;;;;;;;;;;;;;;;;;;;;;;;;;;;;;;;;;;;;;;;;;;;;;;;;;;;;;;;;;13,2;ppm;Unknown;27,9;ppm;Unknown;;;;;;;3,91;ppm;Unknown;1,2;ppm;Unknown;;;;0,79;ppm;Unknown;;;;;;;;;;;;;2,32;ppm;Unknown;0,37;ppm;Unknown;;;;;;;;;;;;;;;;;;;;;;;;;;;;;;;;;;;;;;;;189;ppm;XRF;;;;;;;;;;;;;44;ppm;AAS;129;ppm;AAS;;;;137;ppm;AAS;;;;;;;3,1;ppm;INAA;;;;;;;;;;8;ppm;AAS;;;;;;;;;;11;ppm;XRF;57;ppm;AAS;;;;;;;;;;;;;;;;18;ppm;AAS;;;;;;;;;;;;;;;;34;ppm;INAA;;;;192;ppm;AAS;;;;2,6;ppm;INAA;;;;;;;;;;274;ppm;AAS;;;;;;;100;ppm;AAS;122;ppm;XRF;;;;;;;;;;;;;;;;;;;;;;;;;;;;;;;;;;1,44;wt%;Unknown;0,51;wt%;Unknown;1,44;wt%;Unknown;0,51;wt%;Unknown;;;
DOSTNS-NMB-NE-3;;DOSTAL_NOVA_SCOTIA;DOSTAL, 1984;45,25;-64,75;1;;;CONTINENTAL_RIFT;;;;"AAS; INAA; Unknown; XRF";WHOLE ROCK;IGNEOUS:VOLCANIC:MAFIC;BASALT;;51,33;wt%;Unknown;1,23;wt%;Unknown;15,12;wt%;Unknown;;;;;;;9,6;wt%;Unknown;;;;;;;;;;0,13;wt%;Unknown;7,48;wt%;Unknown;9,59;wt%;Unknown;;;;2,21;wt%;Unknown;0,81;wt%;AAS;0,13;wt%;Unknown;;;;;;;;;;1,23;wt%;Unknown;1,09;wt%;Unknown;;;;;;;;;;65;ppm;AAS;40;ppm;AAS;96;ppm;AAS;;;;66;ppm;AAS;;;;;;;;;;;;;;;;;;;;;;;;;;;;;;;;;;;;;;;;;;;;;;;;;;;;;;;;;;;;;;;;;;;;;;;;;;;;;;;;;;;;;;;;;;;;;;;;;;;;;;;;;;;;;;;;;;;;;;;;;;;;;;;;;;12;ppm;Unknown;25,8;ppm;Unknown;;;;;;;3,66;ppm;Unknown;1,16;ppm;Unknown;;;;0,75;ppm;Unknown;;;;;;;;;;;;;2,25;ppm;Unknown;0,35;ppm;Unknown;;;;;;;;;;;;;;;;;;;;;;;;;;;;;;;;;;;;;;;;152;ppm;XRF;;;;;;;;;;;;;40;ppm;AAS;177;ppm;AAS;;;;96;ppm;AAS;;;;;;;2,8;ppm;INAA;;;;;;;;;;9;ppm;AAS;;;;;;;;;;10;ppm;XRF;65;ppm;AAS;;;;;;;;;;;;;;;;9;ppm;AAS;;;;;;;;;;;;;;;;36;ppm;INAA;;;;207;ppm;AAS;;;;2,4;ppm;INAA;;;;;;;;;;282;ppm;AAS;;;;;;;66;ppm;AAS;112;ppm;XRF;;;;;;;;;;;;;;;;;;;;;;;;;;;;;;;;;;1,23;wt%;Unknown;1,09;wt%;Unknown;1,23;wt%;Unknown;1,09;wt%;Unknown;;;
DOSTNS-NMB-NE-4;;DOSTAL_NOVA_SCOTIA;DOSTAL, 1984;45,25;-64,75;1;;;CONTINENTAL_RIFT;;;;"AAS; INAA; Unknown; XRF";WHOLE ROCK;IGNEOUS:VOLCANIC:MAFIC;BASALT;;50,93;wt%;Unknown;1,09;wt%;Unknown;13,88;wt%;Unknown;;;;;;;10,81;wt%;Unknown;;;;;;;;;;0,16;wt%;Unknown;7,86;wt%;Unknown;10,74;wt%;Unknown;;;;2,14;wt%;Unknown;0,89;wt%;AAS;0,1;wt%;Unknown;;;;;;;;;;1,16;wt%;Unknown;0,75;wt%;Unknown;;;;;;;;;;90;ppm;AAS;47;ppm;AAS;128;ppm;AAS;;;;85;ppm;AAS;;;;;;;;;;;;;;;;;;;;;;;;;;;;;;;;;;;;;;;;;;;;;;;;;;;;;;;;;;;;;;;;;;;;;;;;;;;;;;;;;;;;;;;;;;;;;;;;;;;;;;;;;;;;;;;;;;;;;;;;;;;;;;;;;;11,4;ppm;Unknown;24,4;ppm;Unknown;;;;;;;3,35;ppm;Unknown;1,14;ppm;Unknown;;;;0,66;ppm;Unknown;;;;;;;;;;;;;2,06;ppm;Unknown;0,33;ppm;Unknown;;;;;;;;;;;;;;;;;;;;;;;;;;;;;;;;;;;;;;;;153;ppm;XRF;;;;;;;;;;;;;47;ppm;AAS;360;ppm;AAS;;;;128;ppm;AAS;;;;;;;2,6;ppm;INAA;;;;;;;;;;9;ppm;AAS;;;;;;;;;;9;ppm;XRF;90;ppm;AAS;;;;;;;;;;;;;;;;15;ppm;AAS;;;;;;;;;;;;;;;;40;ppm;INAA;;;;180;ppm;AAS;;;;2,3;ppm;INAA;;;;;;;;;;262;ppm;AAS;;;;;;;85;ppm;AAS;102;ppm;XRF;;;;;;;;;;;;;;;;;;;;;;;;;;;;;;;;;;1,16;wt%;Unknown;0,75;wt%;Unknown;1,16;wt%;Unknown;0,75;wt%;Unknown;;;
DOSTNS-NMB-SW-1;;DOSTAL_NOVA_SCOTIA;DOSTAL, 1984;45,25;-64,75;1;;;CONTINENTAL_RIFT;;;;"AAS; Unknown; XRF";WHOLE ROCK;IGNEOUS:VOLCANIC:MAFIC;BASALT;;51,01;wt%;Unknown;1,26;wt%;Unknown;13,85;wt%;Unknown;;;;;;;11,15;wt%;Unknown;;;;;;;;;;0,14;wt%;Unknown;6,53;wt%;Unknown;9,16;wt%;Unknown;;;;2,34;wt%;Unknown;0,97;wt%;AAS;0,21;wt%;Unknown;;;;;;;;;;1,24;wt%;Unknown;2,38;wt%;Unknown;;;;;;;;;;49;ppm;AAS;43;ppm;AAS;224;ppm;AAS;;;;65;ppm;AAS;;;;;;;;;;;;;;;;;;;;;;;;;;;;;;;;;;;;;;;;;;;;;;;;;;;;;;;;;;;;;;;;;;;;;;;;;;;;;;;;;;;;;;;;;;;;;;;;;;;;;;;;;;;;;;;;;;;;;;;;;;;;;;;;;;;;;;;;;;;;;;;;;;;;;;;;;;;;;;;;;;;;;;;;;;;;;;;;;;;;;;;;;;;;;;;;;;;;;;;;;;;;;;;;;;;166;ppm;XRF;;;;;;;;;;;;;43;ppm;AAS;101;ppm;AAS;;;;224;ppm;AAS;;;;;;;;;;;;;;;;;;;18;ppm;AAS;;;;;;;;;;11;ppm;XRF;49;ppm;AAS;;;;;;;;;;;;;;;;14;ppm;AAS;;;;;;;;;;;;;;;;;;;;;;183;ppm;AAS;;;;;;;;;;;;;;;;273;ppm;AAS;;;;;;;65;ppm;AAS;118;ppm;XRF;;;;;;;;;;;;;;;;;;;;;;;;;;;;;;;;;;1,24;wt%;Unknown;2,38;wt%;Unknown;1,24;wt%;Unknown;2,38;wt%;Unknown;;;
DOSTNS-NMB-SW-2;;DOSTAL_NOVA_SCOTIA;DOSTAL, 1984;45,25;-64,75;1;;;CONTINENTAL_RIFT;;;;"AAS; Unknown; XRF";WHOLE ROCK;IGNEOUS:VOLCANIC:MAFIC;BASALT;;52,7;wt%;Unknown;1,36;wt%;Unknown;13,51;wt%;Unknown;;;;;;;11,89;wt%;Unknown;;;;;;;;;;0,2;wt%;Unknown;5,75;wt%;Unknown;9,82;wt%;Unknown;;;;2,07;wt%;Unknown;1,48;wt%;AAS;0,21;wt%;Unknown;;;;;;;;;;0,43;wt%;Unknown;0,63;wt%;Unknown;;;;;;;;;;48;ppm;AAS;45;ppm;AAS;157;ppm;AAS;;;;88;ppm;AAS;;;;;;;;;;;;;;;;;;;;;;;;;;;;;;;;;;;;;;;;;;;;;;;;;;;;;;;;;;;;;;;;;;;;;;;;;;;;;;;;;;;;;;;;;;;;;;;;;;;;;;;;;;;;;;;;;;;;;;;;;;;;;;;;;;;;;;;;;;;;;;;;;;;;;;;;;;;;;;;;;;;;;;;;;;;;;;;;;;;;;;;;;;;;;;;;;;;;;;;;;;;;;;;;;;;213;ppm;XRF;;;;;;;;;;;;;45;ppm;AAS;78;ppm;AAS;;;;157;ppm;AAS;;;;;;;;;;;;;;;;;;;10;ppm;AAS;;;;;;;;;;10;ppm;XRF;48;ppm;AAS;;;;;;;;;;;;;;;;27;ppm;AAS;;;;;;;;;;;;;;;;;;;;;;192;ppm;AAS;;;;;;;;;;;;;;;;284;ppm;AAS;;;;;;;88;ppm;AAS;119;ppm;XRF;;;;;;;;;;;;;;;;;;;;;;;;;;;;;;;;;;0,43;wt%;Unknown;0,63;wt%;Unknown;0,43;wt%;Unknown;0,63;wt%;Unknown;;;
DOSTNS-NMB-SW-3;;DOSTAL_NOVA_SCOTIA;DOSTAL, 1984;45,25;-64,75;1;;;CONTINENTAL_RIFT;;;;"AAS; Unknown; XRF";WHOLE ROCK;IGNEOUS:VOLCANIC:MAFIC;BASALT;;50,86;wt%;Unknown;1,14;wt%;Unknown;13,78;wt%;Unknown;;;;;;;9,55;wt%;Unknown;;;;;;;;;;0,12;wt%;Unknown;7,94;wt%;Unknown;9,92;wt%;Unknown;;;;2,23;wt%;Unknown;1,01;wt%;AAS;0,18;wt%;Unknown;;;;;;;;;;1,09;wt%;Unknown;1,21;wt%;Unknown;;;;;;;;;;73;ppm;AAS;41;ppm;AAS;165;ppm;AAS;;;;76;ppm;AAS;;;;;;;;;;;;;;;;;;;;;;;;;;;;;;;;;;;;;;;;;;;;;;;;;;;;;;;;;;;;;;;;;;;;;;;;;;;;;;;;;;;;;;;;;;;;;;;;;;;;;;;;;;;;;;;;;;;;;;;;;;;;;;;;;;;;;;;;;;;;;;;;;;;;;;;;;;;;;;;;;;;;;;;;;;;;;;;;;;;;;;;;;;;;;;;;;;;;;;;;;;;;;;;;;;;143;ppm;XRF;;;;;;;;;;;;;41;ppm;AAS;224;ppm;AAS;;;;165;ppm;AAS;;;;;;;;;;;;;;;;;;;9;ppm;AAS;;;;;;;;;;10;ppm;XRF;73;ppm;AAS;;;;;;;;;;;;;;;;17;ppm;AAS;;;;;;;;;;;;;;;;;;;;;;201;ppm;AAS;;;;;;;;;;;;;;;;293;ppm;AAS;;;;;;;76;ppm;AAS;102;ppm;XRF;;;;;;;;;;;;;;;;;;;;;;;;;;;;;;;;;;1,09;wt%;Unknown;1,21;wt%;Unknown;1,09;wt%;Unknown;1,21;wt%;Unknown;;;