SAMPLE ID;IGSN;EXPEDITION ID;REFERENCES;LATITUDE;LONGITUDE;LOC PREC;MIN ELEVATION;MAX ELEVATION;TECTONIC SETTING;MIN AGE;AGE;MAX AGE;METHOD;ANALYZED MATERIAL;ROCK TYPE;ROCK NAME;MINERAL;SIO2;SIO2 Units;SIO2 Method;TIO2;TIO2 Units;TIO2 Method;AL2O3;AL2O3 Units;AL2O3 Method;CR2O3;CR2O3 Units;CR2O3 Method;FE2O3;FE2O3 Units;FE2O3 Method;FE2O3T;FE2O3T Units;FE2O3T Method;FEO;FEO Units;FEO Method;FEOT;FEOT Units;FEOT Method;NIO;NIO Units;NIO Method;MNO;MNO Units;MNO Method;MGO;MGO Units;MGO Method;CAO;CAO Units;CAO Method;SRO;SRO Units;SRO Method;NA2O;NA2O Units;NA2O Method;K2O;K2O Units;K2O Method;P2O5;P2O5 Units;P2O5 Method;BAO;BAO Units;BAO Method;LOI;LOI Units;LOI Method;H2O;H2O Units;H2O Method;H2O_M;H2O_M Units;H2O_M Method;H2O_P;H2O_P Units;H2O_P Method;SO3;SO3 Units;SO3 Method;COO;COO Units;COO Method;MN;MN Units;MN Method;NI;NI Units;NI Method;CO;CO Units;CO Method;CU;CU Units;CU Method;CD;CD Units;CD Method;ZN;ZN Units;ZN Method;AS;AS Units;AS Method;AG;AG Units;AG Method;S;S Units;S Method;ZRO2;ZRO2 Units;ZRO2 Method;AL;AL Units;AL Method;CA;CA Units;CA Method;SR87_SR86;SR87_SR86 Units;SR87_SR86 Method;SR87_SR86_INI;SR87_SR86_INI Units;SR87_SR86_INI Method;RB87_SR86;RB87_SR86 Units;RB87_SR86 Method;ND143_ND144;ND143_ND144 Units;ND143_ND144 Method;ND143_ND144_INI;ND143_ND144_INI Units;ND143_ND144_INI Method;SM147_ND144;SM147_ND144 Units;SM147_ND144 Method;E_ND;E_ND Units;E_ND Method;E_ND_INI;E_ND_INI Units;E_ND_INI Method;PB204_PB206;PB204_PB206 Units;PB204_PB206 Method;PB206_PB204;PB206_PB204 Units;PB206_PB204 Method;PB206_PB204_INI;PB206_PB204_INI Units;PB206_PB204_INI Method;PB207_PB204;PB207_PB204 Units;PB207_PB204 Method;PB207_PB204_INI;PB207_PB204_INI Units;PB207_PB204_INI Method;PB207_PB206;PB207_PB206 Units;PB207_PB206 Method;PB208_PB204;PB208_PB204 Units;PB208_PB204 Method;PB208_PB204_INI;PB208_PB204_INI Units;PB208_PB204_INI Method;PB208_PB206;PB208_PB206 Units;PB208_PB206 Method;HF176_HF177;HF176_HF177 Units;HF176_HF177 Method;RE187_OS188;RE187_OS188 Units;RE187_OS188 Method;OS187_OS188;OS187_OS188 Units;OS187_OS188 Method;OS187_OS188_INI;OS187_OS188_INI Units;OS187_OS188_INI Method;G_OS;G_OS Units;G_OS Method;G_OS_INI;G_OS_INI Units;G_OS_INI Method;ND143_ND144_INI;ND143_ND144_INI Units;ND143_ND144_INI Method;PB206_PB204_INI;PB206_PB204_INI Units;PB206_PB204_INI Method;PB207_PB204_INI;PB207_PB204_INI Units;PB207_PB204_INI Method;PB208_PB204_INI;PB208_PB204_INI Units;PB208_PB204_INI Method;SR87_SR86_INI;SR87_SR86_INI Units;SR87_SR86_INI Method;HE;HE Units;HE Method;HE3;HE3 Units;HE3 Method;HE3_HE4_R_RA;HE3_HE4_R_RA Units;HE3_HE4_R_RA Method;AR36;AR36 Units;AR36 Method;AR40;AR40 Units;AR40 Method;AR40_AR36;AR40_AR36 Units;AR40_AR36 Method;NE20;NE20 Units;NE20 Method;NE20_NE22;NE20_NE22 Units;NE20_NE22 Method;NE21_NE22;NE21_NE22 Units;NE21_NE22 Method;LA;LA Units;LA Method;CE;CE Units;CE Method;PR;PR Units;PR Method;ND;ND Units;ND Method;SM;SM Units;SM Method;EU;EU Units;EU Method;GD;GD Units;GD Method;TB;TB Units;TB Method;DY;DY Units;DY Method;HO;HO Units;HO Method;ER;ER Units;ER Method;TM;TM Units;TM Method;YB;YB Units;YB Method;LU;LU Units;LU Method;CO2;CO2 Units;CO2 Method;F;F Units;F Method;CL;CL Units;CL Method;U238_PB204;U238_PB204 Units;U238_PB204 Method;TH230_TH232;TH230_TH232 Units;TH230_TH232 Method;RA226_ACTIVITY;RA226_ACTIVITY Units;RA226_ACTIVITY Method;PB210_RA226;PB210_RA226 Units;PB210_RA226 Method;PB210_ACTIVITY;PB210_ACTIVITY Units;PB210_ACTIVITY Method;AG;AG Units;AG Method;AL;AL Units;AL Method;AS;AS Units;AS Method;AU;AU Units;AU Method;B;B Units;B Method;BA;BA Units;BA Method;BE;BE Units;BE Method;BI;BI Units;BI Method;CA;CA Units;CA Method;CD;CD Units;CD Method;CO;CO Units;CO Method;CR;CR Units;CR Method;CS;CS Units;CS Method;CU;CU Units;CU Method;GA;GA Units;GA Method;GER;GER Units;GER Method;HF;HF Units;HF Method;INDIUM;INDIUM Units;INDIUM Method;IR;IR Units;IR Method;K;K Units;K Method;LI;LI Units;LI Method;MN;MN Units;MN Method;MO;MO Units;MO Method;NA;NA Units;NA Method;NB;NB Units;NB Method;NI;NI Units;NI Method;OS;OS Units;OS Method;P;P Units;P Method;PB;PB Units;PB Method;PD;PD Units;PD Method;PT;PT Units;PT Method;RB;RB Units;RB Method;RE;RE Units;RE Method;RH;RH Units;RH Method;RU;RU Units;RU Method;S;S Units;S Method;SB;SB Units;SB Method;SC;SC Units;SC Method;SN;SN Units;SN Method;SR;SR Units;SR Method;TA;TA Units;TA Method;TH;TH Units;TH Method;TI;TI Units;TI Method;TL;TL Units;TL Method;U;U Units;U Method;V;V Units;V Method;W;W Units;W Method;Y;Y Units;Y Method;ZN;ZN Units;ZN Method;ZR;ZR Units;ZR Method;DELTA_O18;DELTA_O18 Units;DELTA_O18 Method;DELTA_C13;DELTA_C13 Units;DELTA_C13 Method;DELTA_MO98;DELTA_MO98 Units;DELTA_MO98 Method;DELTA_ZN66;DELTA_ZN66 Units;DELTA_ZN66 Method;DELTA_ZN68;DELTA_ZN68 Units;DELTA_ZN68 Method;OS188;OS188 Units;OS188 Method;FE3P_FET;FE3P_FET Units;FE3P_FET Method;TI;TI Units;TI Method;AS;AS Units;AS Method;AS;AS Units;AS Method;GER;GER Units;GER Method;H2O_M;H2O_M Units;H2O_M Method;H2O_P;H2O_P Units;H2O_P Method;H2O_M;H2O_M Units;H2O_M Method;H2O_P;H2O_P Units;H2O_P Method;INDIUM;INDIUM Units;INDIUM Method
CEBR-IBERIA-36;;CEB-IBERIA;CEBRIA, 2003;40,75;-5;1;;;CONTINENTAL_RIFT;;;;"AAS; IGN; INAA; MS; XRF";WHOLE ROCK;IGNEOUS:VOLCANIC:MAFIC;DOLERITE;;51,02;wt%;AAS;0,78;wt%;XRF;13,74;wt%;AAS;;;;3,27;wt%;AAS;;;;6,43;wt%;AAS;;;;;;;0,17;wt%;AAS;8,85;wt%;AAS;12,36;wt%;AAS;;;;1,74;wt%;AAS;0,41;wt%;AAS;0,11;wt%;XRF;;;;0,29;ppm;IGN;;;;;;;;;;;;;;;;;;;108;ppm;XRF;49;ppm;INAA;89;ppm;XRF;;;;73;ppm;INAA;;;;;;;;;;;;;;;;;;;0,706786;Not Applicable;MS;;;;;;;0,512526;Not Applicable;MS;;;;;;;;;;;;;;;;;;;;;;;;;;;;;;;;;;;;;;;;;;;;;;;;;;;;;;;;;;;;;;;;;;;;;;;;;;;;;;;;;;;;;;;;;;;;;;;;;;;;6;ppm;INAA;13,2;ppm;INAA;;;;8,2;ppm;INAA;2,11;ppm;INAA;0,76;ppm;INAA;;;;0,41;ppm;INAA;;;;;;;;;;;;;1,62;ppm;INAA;0,23;ppm;INAA;;;;;;;;;;;;;;;;;;;;;;;;;;;;;;;;;;;;;;;;98;ppm;XRF;;;;;;;;;;;;;49;ppm;INAA;276;ppm;INAA;1,54;ppm;INAA;89;ppm;XRF;;;;;;;1,37;ppm;INAA;;;;;;;;;;;;;;;;;;;;;;;;;108;ppm;XRF;;;;;;;;;;;;;;;;15;ppm;XRF;;;;;;;;;;;;;;;;;;;;;;168;ppm;XRF;0,24;ppm;INAA;0,97;ppm;INAA;;;;;;;0,28;ppm;INAA;278;ppm;XRF;;;;17;ppm;XRF;73;ppm;INAA;60;ppm;XRF;;;;;;;;;;;;;;;;;;;;;;;;;;;;;;;;;;;;;;;;;;;;;;;;
CEBR-IBERIA-4;;CEB-IBERIA;CEBRIA, 2003;38,55;-7,3;1;;;CONTINENTAL_RIFT;;;;"AAS; IGN; INAA; MS; XRF";WHOLE ROCK;IGNEOUS:VOLCANIC:MAFIC;DOLERITE;;50,63;wt%;AAS;0,97;wt%;XRF;14,73;wt%;AAS;;;;2,59;wt%;AAS;;;;7,32;wt%;AAS;;;;;;;0,16;wt%;AAS;8,45;wt%;AAS;12,31;wt%;AAS;;;;2,29;wt%;AAS;0,37;wt%;AAS;0,1;wt%;XRF;;;;0,88;ppm;IGN;;;;;;;;;;;;;;;;;;;140;ppm;XRF;41;ppm;INAA;;;;;;;92;ppm;INAA;;;;;;;;;;;;;;;;;;;0,706151;Not Applicable;MS;;;;;;;0,512581;Not Applicable;MS;;;;;;;;;;;;;;;;;;;;;;;;;;;;;;;;;;;;;;;;;;;;;;;;;;;;;;;;;;;;;;;;;;;;;;;;;;;;;;;;;;;;;;;;;;;;;;;;;;;;7,3;ppm;INAA;16,8;ppm;INAA;;;;10,8;ppm;INAA;2,75;ppm;INAA;0,97;ppm;INAA;;;;0,57;ppm;INAA;;;;;;;;;;;;;2,02;ppm;INAA;0,3;ppm;INAA;;;;;;;;;;;;;;;;;;;;;;;;;;;;;;;;;;;;;;;;95;ppm;XRF;;;;;;;;;;;;;41;ppm;INAA;254;ppm;INAA;0,87;ppm;INAA;;;;;;;;;;2,08;ppm;INAA;;;;;;;;;;;;;;;;;;;;;;;;;140;ppm;XRF;;;;;;;;;;;;;;;;10;ppm;XRF;;;;;;;;;;;;;;;;40;ppm;INAA;;;;150;ppm;XRF;0,31;ppm;INAA;1,28;ppm;INAA;;;;;;;0,3;ppm;INAA;269;ppm;XRF;;;;25;ppm;XRF;92;ppm;INAA;87;ppm;XRF;;;;;;;;;;;;;;;;;;;;;;;;;;;;;;;;;;;;;;;;;;;;;;;;
CEBR-IBERIA-7;;CEB-IBERIA;CEBRIA, 2003;38,75;-7,15;1;;;CONTINENTAL_RIFT;;;;"AAS; IGN; INAA; XRF";WHOLE ROCK;IGNEOUS:VOLCANIC:MAFIC;DOLERITE;;50,27;wt%;AAS;0,99;wt%;XRF;14,54;wt%;AAS;;;;1,95;wt%;AAS;;;;8,34;wt%;AAS;;;;;;;0,18;wt%;AAS;8,12;wt%;AAS;11,61;wt%;AAS;;;;2,02;wt%;AAS;0,63;wt%;AAS;0,13;wt%;XRF;;;;0,44;ppm;IGN;;;;;;;;;;;;;;;;;;;63;ppm;XRF;41;ppm;INAA;;;;;;;112;ppm;INAA;;;;;;;;;;;;;;;;;;;;;;;;;;;;;;;;;;;;;;;;;;;;;;;;;;;;;;;;;;;;;;;;;;;;;;;;;;;;;;;;;;;;;;;;;;;;;;;;;;;;;;;;;;;;;;;;;;;;;;;;;;;;;;;;;;8,1;ppm;INAA;18,6;ppm;INAA;;;;11,6;ppm;INAA;2,98;ppm;INAA;1,05;ppm;INAA;;;;0,7;ppm;INAA;;;;;;;;;;;;;2,11;ppm;INAA;0,33;ppm;INAA;;;;;;;;;;;;;;;;;;;;;;;;;;;;;;;;;;;;;;;;168;ppm;XRF;;;;;;;;;;;;;41;ppm;INAA;128;ppm;INAA;1,5;ppm;INAA;;;;;;;;;;2,16;ppm;INAA;;;;;;;;;;;;;;;;;;;;;;;;;63;ppm;XRF;;;;;;;;;;;;;;;;18;ppm;XRF;;;;;;;;;;;;;;;;40;ppm;INAA;;;;201;ppm;XRF;0,35;ppm;INAA;1,34;ppm;INAA;;;;;;;0,5;ppm;INAA;277;ppm;XRF;;;;25;ppm;XRF;112;ppm;INAA;90;ppm;XRF;;;;;;;;;;;;;;;;;;;;;;;;;;;;;;;;;;;;;;;;;;;;;;;;
CEBR-IBERIA-9;;CEB-IBERIA;CEBRIA, 2003;39;-7,1;1;;;CONTINENTAL_RIFT;;;;"AAS; IGN; INAA; MS; XRF";WHOLE ROCK;IGNEOUS:VOLCANIC:MAFIC;DOLERITE;;51,8;wt%;AAS;0,92;wt%;XRF;14,93;wt%;AAS;;;;2,16;wt%;AAS;;;;6,74;wt%;AAS;;;;;;;12;wt%;AAS;7,29;wt%;AAS;11,89;wt%;AAS;;;;2,56;wt%;AAS;0,61;wt%;AAS;0,13;wt%;XRF;;;;0,36;ppm;IGN;;;;;;;;;;;;;;;;;;;56;ppm;XRF;40;ppm;INAA;;;;;;;86;ppm;INAA;;;;;;;;;;;;;;;;;;;0,706865;Not Applicable;MS;;;;;;;0,512501;Not Applicable;MS;;;;;;;;;;;;;;;;18,47;Not Applicable;MS;;;;15,621;Not Applicable;MS;;;;;;;38,401;Not Applicable;MS;;;;;;;;;;;;;;;;;;;;;;;;;;;;;;;;;;;;;;;;;;;;;;;;;;;;;;;;;;;;;;;;;;;8,7;ppm;INAA;20;ppm;INAA;;;;11,9;ppm;INAA;2,98;ppm;INAA;1,03;ppm;INAA;;;;0,64;ppm;INAA;;;;;;;;;;;;;2,04;ppm;INAA;0,32;ppm;INAA;;;;;;;;;;;;;;;;;;;;;;;;;;;;;;;;;;;;;;;;155;ppm;XRF;;;;;;;;;;;;;40;ppm;INAA;116;ppm;INAA;0,92;ppm;INAA;;;;;;;;;;2,2;ppm;INAA;;;;;;;;;;;;;;;;;;;;;;;;;56;ppm;XRF;;;;;;;;;;;;;;;;19;ppm;XRF;;;;;;;;;;;;;;;;38;ppm;INAA;;;;172;ppm;XRF;0,37;ppm;INAA;1,8;ppm;INAA;;;;;;;0,68;ppm;INAA;257;ppm;XRF;;;;24;ppm;XRF;86;ppm;INAA;98;ppm;XRF;;;;;;;;;;;;;;;;;;;;;;;;;;;;;;;;;;;;;;;;;;;;;;;;
CHAZYEM-AT/JK1;;nr;CHAZOT, 1996;14;48,2;0,01;;;CONTINENTAL_RIFT;;;;"EMP; IMP";GLASS;IGNEOUS:PLUTONIC:ULTRAMAFIC;PERIDOTITE;;58,44;wt%;EMP;0,4;wt%;EMP;18,79;wt%;EMP;;;;;;;;;;2,39;wt%;EMP;;;;0,16;wt%;EMP;0,04;wt%;EMP;2,78;wt%;EMP;6,03;wt%;EMP;;;;4,29;wt%;EMP;1,69;wt%;EMP;;;;;;;;;;;;;;;;;;;;;;;;;;;;;;;;;;;;;;;;;;;;;;;;;;;;;;;;;;;;;;;;;;;;;;;;;;;;;;;;;;;;;;;;;;;;;;;;;;;;;;;;;;;;;;;;;;;;;;;;;;;;;;;;;;;;;;;;;;;;;;;;;;;;;;;;;;;;;;;;;;;;;;;;;;;;24,6;ppm;IMP;26,5;ppm;IMP;1,59;ppm;IMP;4,84;ppm;IMP;0,92;ppm;IMP;0,36;ppm;IMP;0,64;ppm;IMP;0,17;ppm;IMP;1;ppm;IMP;0,26;ppm;IMP;1,11;ppm;IMP;;;;0,98;ppm;IMP;0,11;ppm;IMP;;;;;;;0,06;wt%;EMP;;;;;;;;;;;;;;;;;;;;;;;;;;;;;;;61,4;ppm;IMP;;;;;;;;;;;;;;;;;;;;;;;;;;;;;;;1,81;ppm;IMP;;;;;;;;;;;;;;;;;;;;;;78,5;ppm;IMP;;;;;;;;;;;;;;;;;;;;;;;;;;;;;;;;;;;;;;;;;;;339;ppm;IMP;;;;8,73;ppm;IMP;;;;;;;;;;;;;;;;6,33;ppm;IMP;;;;78,3;ppm;IMP;;;;;;;;;;;;;;;;;;;;;;;;;;;;;;;;;;;;;;;;;;;;;;;;
CHAZYEM-AT/JK2;;nr;CHAZOT, 1996;14;48,2;0,01;;;CONTINENTAL_RIFT;;;;"EMP; IMP";GLASS;IGNEOUS:PLUTONIC:ULTRAMAFIC;PERIDOTITE;;48,94;wt%;EMP;0,41;wt%;EMP;18,44;wt%;EMP;0,04;wt%;EMP;;;;;;;2,14;wt%;EMP;;;;0,01;wt%;EMP;0,03;wt%;EMP;1,84;wt%;EMP;10,38;wt%;EMP;;;;5,77;wt%;EMP;1,94;wt%;EMP;0,04;wt%;EMP;;;;;;;;;;;;;;;;;;;;;;;;;;;;;;;;;;;;;;;;;;;;;;;;;;;;;;;;;;;;;;;;;;;;;;;;;;;;;;;;;;;;;;;;;;;;;;;;;;;;;;;;;;;;;;;;;;;;;;;;;;;;;;;;;;;;;;;;;;;;;;;;;;;;;;;;;;;;;;;;;;;;;;;;;79,5;ppm;IMP;166;ppm;IMP;17,6;ppm;IMP;61,5;ppm;IMP;6,92;ppm;IMP;2,96;ppm;IMP;8,08;ppm;IMP;0,67;ppm;IMP;4,72;ppm;IMP;0,71;ppm;IMP;1,74;ppm;IMP;;;;0,72;ppm;IMP;0,21;ppm;IMP;;;;;;;0,38;wt%;EMP;;;;;;;;;;;;;;;;;;;;;;;;;;;;;;;1090;ppm;IMP;;;;;;;;;;;;;;;;;;;;;;;;;;;;;;;2,63;ppm;IMP;;;;;;;;;;;;;;;;;;;;;;57;ppm;IMP;;;;;;;;;;;;;;;;;;;26;ppm;IMP;;;;;;;;;;;;;;;;;;;;;;1730;ppm;IMP;;;;5,85;ppm;IMP;;;;;;;;;;;;;;;;11,3;ppm;IMP;;;;106;ppm;IMP;;;;;;;;;;;;;;;;;;;;;;;;;;;;;;;;;;;;;;;;;;;;;;;;
CHAZYEM-AT/JK3;;nr;CHAZOT, 1996;14;48,2;0,01;;;CONTINENTAL_RIFT;;;;"EMP; IMP";GLASS;IGNEOUS:PLUTONIC:ULTRAMAFIC;PERIDOTITE;;50,03;wt%;EMP;0,52;wt%;EMP;20,81;wt%;EMP;0,01;wt%;EMP;;;;;;;2,22;wt%;EMP;;;;0,03;wt%;EMP;0,05;wt%;EMP;1,32;wt%;EMP;3,95;wt%;EMP;;;;5,92;wt%;EMP;0,55;wt%;EMP;0,59;wt%;EMP;;;;;;;;;;;;;;;;;;;;;;;;;;;;;;;;;;;;;;;;;;;;;;;;;;;;;;;;;;;;;;;;;;;;;;;;;;;;;;;;;;;;;;;;;;;;;;;;;;;;;;;;;;;;;;;;;;;;;;;;;;;;;;;;;;;;;;;;;;;;;;;;;;;;;;;;;;;;;;;;;;;;;;;;;603;ppm;IMP;862;ppm;IMP;55,2;ppm;IMP;116;ppm;IMP;6,56;ppm;IMP;2,09;ppm;IMP;6,27;ppm;IMP;0,78;ppm;IMP;6,41;ppm;IMP;1,39;ppm;IMP;5,13;ppm;IMP;;;;2,13;ppm;IMP;0,43;ppm;IMP;;;;;;;0,51;wt%;EMP;;;;;;;;;;;;;;;;;;;;;;;;;;;;;;;4080;ppm;IMP;;;;;;;;;;;;;;;;;;;;;;;;;;;;;;;1,03;ppm;IMP;;;;;;;;;;;;;;;;;;;;;;;;;;;;;;;;;;;;;;;;;;;20;ppm;IMP;;;;;;;;;;;;;;;;;;;;;;5450;ppm;IMP;;;;;;;;;;;;;;;;;;;;;;16,4;ppm;IMP;;;;19,2;ppm;IMP;;;;;;;;;;;;;;;;;;;;;;;;;;;;;;;;;;;;;;;;;;;;;;;;
CHAZYEM-AT/JK5;;nr;CHAZOT, 1996;14;48,2;0,01;;;CONTINENTAL_RIFT;;;;EMP;GLASS;IGNEOUS:PLUTONIC:ULTRAMAFIC;PERIDOTITE;;54,87;wt%;EMP;0,8;wt%;EMP;22,18;wt%;EMP;0,27;wt%;EMP;;;;;;;2,22;wt%;EMP;;;;;;;0,07;wt%;EMP;2,26;wt%;EMP;4,94;wt%;EMP;;;;7,16;wt%;EMP;0,57;wt%;EMP;;;;;;;;;;;;;;;;;;;;;;;;;;;;;;;;;;;;;;;;;;;;;;;;;;;;;;;;;;;;;;;;;;;;;;;;;;;;;;;;;;;;;;;;;;;;;;;;;;;;;;;;;;;;;;;;;;;;;;;;;;;;;;;;;;;;;;;;;;;;;;;;;;;;;;;;;;;;;;;;;;;;;;;;;;;;;;;;;;;;;;;;;;;;;;;;;;;;;;;;;;;;;;;;;;;;;;;;;;;;;;;;;;;;;;;;;;;;;;;;;;;;;;;;;;;;;;;;;;;;;;;;;;;;;;;;;;;;;;;;;;;;;;;;;;;;;;;;;;;;;;;;;;;;;;;;;;;;;;;;;;;;;;;;;;;;;;;;;;;;;;;;;;;;;;;;;;;;;;;;;;;;;;;;;;;;;;;;;;;;;;;;;;;;;;;;;;;;;;;;;;;;;;;;;;;;;;;;;;;;;;;;;;;;;;;;;;;
CHAZYEM-AT/JK6;;nr;CHAZOT, 1996;14;48,2;0,01;;;CONTINENTAL_RIFT;;;;"EMP; IMP";GLASS;IGNEOUS:PLUTONIC:ULTRAMAFIC;PERIDOTITE;;50,18;wt%;EMP;0,54;wt%;EMP;20,28;wt%;EMP;0,03;wt%;EMP;;;;;;;2,35;wt%;EMP;;;;0,07;wt%;EMP;0,32;wt%;EMP;2,31;wt%;EMP;6,37;wt%;EMP;;;;5,91;wt%;EMP;0,83;wt%;EMP;;;;;;;;;;;;;;;;;;;;;;;;;;;;;;;;;;;;;;;;;;;;;;;;;;;;;;;;;;;;;;;;;;;;;;;;;;;;;;;;;;;;;;;;;;;;;;;;;;;;;;;;;;;;;;;;;;;;;;;;;;;;;;;;;;;;;;;;;;;;;;;;;;;;;;;;;;;;;;;;;;;;;;;;;;;;112;ppm;IMP;106;ppm;IMP;10,4;ppm;IMP;35,5;ppm;IMP;12,4;ppm;IMP;0,84;ppm;IMP;0,67;ppm;IMP;0,48;ppm;IMP;11;ppm;IMP;0,45;ppm;IMP;1,66;ppm;IMP;;;;1,5;ppm;IMP;0,01;ppm;IMP;;;;;;;;;;;;;;;;;;;;;;;;;;;;;;;;;;;;;;;;1230;ppm;IMP;;;;;;;;;;;;;;;;;;;;;;;;;;;;;;;2,57;ppm;IMP;;;;;;;;;;;;;;;;;;;;;;140;ppm;IMP;;;;;;;;;;;;;;;;;;;;;;;;;;;;;;;;;;;;;;;;;;;1510;ppm;IMP;;;;10;ppm;IMP;;;;;;;;;;;;;;;;12,5;ppm;IMP;;;;203;ppm;IMP;;;;;;;;;;;;;;;;;;;;;;;;;;;;;;;;;;;;;;;;;;;;;;;;
CHAZYEM-AT/JK7;;nr;CHAZOT, 1996;14;48,2;0,01;;;CONTINENTAL_RIFT;;;;"EMP; IMP";GLASS;IGNEOUS:PLUTONIC:ULTRAMAFIC;PERIDOTITE;;53,86;wt%;EMP;0,29;wt%;EMP;20,75;wt%;EMP;0,06;wt%;EMP;;;;;;;2,06;wt%;EMP;;;;0,13;wt%;EMP;0,02;wt%;EMP;2,6;wt%;EMP;5,3;wt%;EMP;;;;7,41;wt%;EMP;1,31;wt%;EMP;;;;;;;;;;;;;;;;;;;;;;;;;;;;;;;;;;;;;;;;;;;;;;;;;;;;;;;;;;;;;;;;;;;;;;;;;;;;;;;;;;;;;;;;;;;;;;;;;;;;;;;;;;;;;;;;;;;;;;;;;;;;;;;;;;;;;;;;;;;;;;;;;;;;;;;;;;;;;;;;;;;;;;;;;;;;117;ppm;IMP;57,1;ppm;IMP;3,23;ppm;IMP;6,51;ppm;IMP;0,42;ppm;IMP;2,36;ppm;IMP;0,02;ppm;IMP;0,02;ppm;IMP;1,89;ppm;IMP;0,36;ppm;IMP;0,92;ppm;IMP;;;;0,19;ppm;IMP;0,1;ppm;IMP;;;;;;;;;;;;;;;;;;;;;;;;;;;;;;;;;;;;;;;;3190;ppm;IMP;;;;;;;;;;;;;;;;;;;;;;;;;;;;;;;0,21;ppm;IMP;;;;;;;;;;;;;;;;;;;;;;2,61;ppm;IMP;;;;;;;;;;;;;;;;;;;;;;;;;;;;;;;;;;;;;;;;;;;1400;ppm;IMP;;;;10,9;ppm;IMP;;;;;;;;;;;;;;;;3,03;ppm;IMP;;;;1,45;ppm;IMP;;;;;;;;;;;;;;;;;;;;;;;;;;;;;;;;;;;;;;;;;;;;;;;;
CHAZYEM-AT/JK8;;nr;CHAZOT, 1996;14;48,2;0,01;;;CONTINENTAL_RIFT;;;;"EMP; IMP";GLASS;IGNEOUS:PLUTONIC:ULTRAMAFIC;PERIDOTITE;;51,25;wt%;EMP;0,12;wt%;EMP;15,99;wt%;EMP;0,01;wt%;EMP;;;;;;;1,45;wt%;EMP;;;;0,06;wt%;EMP;0,01;wt%;EMP;1,28;wt%;EMP;1,67;wt%;EMP;;;;4,57;wt%;EMP;1,26;wt%;EMP;0,07;wt%;EMP;;;;;;;;;;;;;;;;;;;;;;;;;;;;;;;;;;;;;;;;;;;;;;;;;;;;;;;;;;;;;;;;;;;;;;;;;;;;;;;;;;;;;;;;;;;;;;;;;;;;;;;;;;;;;;;;;;;;;;;;;;;;;;;;;;;;;;;;;;;;;;;;;;;;;;;;;;;;;;;;;;;;;;;;;105;ppm;IMP;110;ppm;IMP;14,9;ppm;IMP;127;ppm;IMP;15,1;ppm;IMP;2,15;ppm;IMP;11,6;ppm;IMP;0,9;ppm;IMP;13,5;ppm;IMP;0,73;ppm;IMP;1,84;ppm;IMP;;;;1,31;ppm;IMP;0,2;ppm;IMP;;;;;;;0,13;wt%;EMP;;;;;;;;;;;;;;;;;;;;;;;;;;;;;;;1930;ppm;IMP;;;;;;;;;;;;;;;;;;;;;;;;;;;;;;;0,32;ppm;IMP;;;;;;;;;;;;;;;;;;;;;;165;ppm;IMP;;;;;;;;;;;;;;;;;;;23,7;ppm;IMP;;;;;;;;;;;;;;;;;;;;;;1390;ppm;IMP;;;;0,42;ppm;IMP;;;;;;;;;;;;;;;;14,5;ppm;IMP;;;;169;ppm;IMP;;;;;;;;;;;;;;;;;;;;;;;;;;;;;;;;;;;;;;;;;;;;;;;;
CHAZYEM-BA5;;nr;CHAZOT, 1996;14,05;48,33;0,01;;;CONTINENTAL_RIFT;;;;"EMP; IMP";GLASS;IGNEOUS:PLUTONIC:ULTRAMAFIC;PERIDOTITE;;55,06;wt%;EMP;1,46;wt%;EMP;17,84;wt%;EMP;0,06;wt%;EMP;;;;;;;2,7;wt%;EMP;;;;0,04;wt%;EMP;0,05;wt%;EMP;1,73;wt%;EMP;7,22;wt%;EMP;;;;3,93;wt%;EMP;0,99;wt%;EMP;0,08;wt%;EMP;;;;;;;;;;;;;;;;;;;;;;;;;;;;;;;;;;;;;;;;;;;;;;;;;;;;;;;;;;;;;;;;;;;;;;;;;;;;;;;;;;;;;;;;;;;;;;;;;;;;;;;;;;;;;;;;;;;;;;;;;;;;;;;;;;;;;;;;;;;;;;;;;;;;;;;;;;;;;;;;;;;;;;;;;18,2;ppm;IMP;27,2;ppm;IMP;2,71;ppm;IMP;10,4;ppm;IMP;2,2;ppm;IMP;0,68;ppm;IMP;2,23;ppm;IMP;0,3;ppm;IMP;1,94;ppm;IMP;0,43;ppm;IMP;1,15;ppm;IMP;;;;0,97;ppm;IMP;0,13;ppm;IMP;;;;;;;0,02;wt%;EMP;;;;;;;;;;;;;;;;;;;;;;;;;;;;;;;190;ppm;IMP;;;;;;;;;;;;;;;;;;;;;;;;;;;;;;;4,36;ppm;IMP;;;;;;;;;;;;;;;;;;;;;;100;ppm;IMP;;;;;;;;;;;;;;;;;;;10,4;ppm;IMP;;;;;;;;;;;;;;;;;;;;;;258;ppm;IMP;;;;;;;;;;;;;;;;;;;;;;7,42;ppm;IMP;;;;165;ppm;IMP;;;;;;;;;;;;;;;;;;;;;;;;;;;;;;;;;;;;;;;;;;;;;;;;
COHTANZ-BD-3487;;nr;COHEN, 1984;-3,3667;36,4333;0,0001;;;CONTINENTAL_RIFT;;;;"MS; Unknown";WHOLE ROCK;IGNEOUS:PLUTONIC:ULTRAMAFIC;PERIDOTITE;;;;;;;;;;;;;;;;;;;;;;;;;;;;;;;;;;;;;;;;;;;;;;;;;;;;;;;;;;;;;;;;;;;;;;;;;;;;;;;;;;;;;;;;;;;;;;;;;;;;;;;;;;;0,70344;Not Applicable;MS;;;;0,531;Not Applicable;MS;0,51284;Not Applicable;MS;;;;0,144;Not Applicable;MS;;;;;;;;;;19,9;Not Applicable;MS;;;;15,71;Not Applicable;MS;;;;;;;39,51;Not Applicable;MS;;;;;;;;;;;;;;;;;;;;;;;;;;;;;;;;;;;;;;;;;;;;;;;;;;;;;;;;;;;;;;;;;;;;;;;;;;;;10,56;ppm;Unknown;2,523;ppm;Unknown;;;;;;;;;;;;;;;;;;;;;;;;;;;;;;;;;;;;;9,92;Not Applicable;MS;;;;;;;;;;;;;;;;;;;;;;;;;;;;;;;;;;;;;;;;;;;;;;;;;;;;;;;;;;;;;;;;;;;;;;;;;;;;;;;;;;;;;;;;;;;;;;;;;0,325;ppm;Unknown;;;;;;;32,09;ppm;Unknown;;;;;;;;;;;;;;;;;;;;;;174,7;ppm;Unknown;;;;;;;;;;;;;0,049;ppm;Unknown;;;;;;;;;;;;;;;;;;;;;;;;;;;;;;;;;;;;;;;;;;;;;;;;;;;;;;;;;;;;;;;
COHTANZ-BD-526;;nr;COHEN, 1984;-3,3667;36,4333;0,0001;;;CONTINENTAL_RIFT;;;;"MS; Unknown";WHOLE ROCK;METAMORPHIC;GRANULITE;;;;;;;;;;;;;;;;;;;;;;;;;;;;;;;;;;;;;;;;;;;;;;;;;;;;;;;;;;;;;;;;;;;;;;;;;;;;;;;;;;;;;;;;;;;;;;;;;;;;;;;;;;;0,70429;Not Applicable;MS;;;;0,016;Not Applicable;MS;0,51216;Not Applicable;MS;;;;0,152;Not Applicable;MS;;;;;;;;;;17,39;Not Applicable;MS;;;;15,5;Not Applicable;MS;;;;;;;37,54;Not Applicable;MS;;;;;;;;;;;;;;;;;;;;;;;;;;;;;;;;;;;;;;;;;;;;;;;;;;;;;;;;;;;;;;;;;;;;;;;;;;;;3,943;ppm;Unknown;0,9929;ppm;Unknown;;;;;;;;;;;;;;;;;;;;;;;;;;;;;;;;;;;;;2,86;Not Applicable;MS;;;;;;;;;;;;;;;;;;;;;;;;;;;;;;;;;;;;;;;;;;;;;;;;;;;;;;;;;;;;;;;;;;;;;;;;;;;;;;;;;;;;;;;;;;;;;;;;;3,839;ppm;Unknown;;;;;;;7,863;ppm;Unknown;;;;;;;;;;;;;;;;;;;;;;1441;ppm;Unknown;;;;;;;;;;;;;0,178;ppm;Unknown;;;;;;;;;;;;;;;;;;;;;;;;;;;;;;;;;;;;;;;;;;;;;;;;;;;;;;;;;;;;;;;
COHTANZ-BD-528;;nr;COHEN, 1984;-3,3667;36,4333;0,0001;;;CONTINENTAL_RIFT;;;;"MS; Unknown";WHOLE ROCK;METAMORPHIC;GRANULITE;;;;;;;;;;;;;;;;;;;;;;;;;;;;;;;;;;;;;;;;;;;;;;;;;;;;;;;;;;;;;;;;;;;;;;;;;;;;;;;;;;;;;;;;;;;;;;;;;;;;;;;;;;;0,70415;Not Applicable;MS;;;;0,033;Not Applicable;MS;0,51229;Not Applicable;MS;;;;0,142;Not Applicable;MS;;;;;;;;;;16,36;Not Applicable;MS;;;;15,46;Not Applicable;MS;;;;;;;36,47;Not Applicable;MS;;;;;;;;;;;;;;;;;;;;;;;;;;;;;;;;;;;;;;;;;;;;;;;;;;;;;;;;;;;;;;;;;;;;;;;;;;;;4,492;ppm;Unknown;1,053;ppm;Unknown;;;;;;;;;;;;;;;;;;;;;;;;;;;;;;;;;;;;;3,37;Not Applicable;MS;;;;;;;;;;;;;;;;;;;;;;;;;;;;;;;;;;;;;;;;;;;;;;;;;;;;;;;;;;;;;;;;;;;;;;;;;;;;;;;;;;;;;;;;;;;;;;;;;1,67;ppm;Unknown;;;;;;;15,62;ppm;Unknown;;;;;;;;;;;;;;;;;;;;;;1359;ppm;Unknown;;;;;;;;;;;;;0,094;ppm;Unknown;;;;;;;;;;;;;;;;;;;;;;;;;;;;;;;;;;;;;;;;;;;;;;;;;;;;;;;;;;;;;;;
COHTANZ-BD-727;;nr;COHEN, 1984;-3,3667;36,4333;0,0001;;;CONTINENTAL_RIFT;;;;"MS; Unknown";WHOLE ROCK;METAMORPHIC;GRANULITE;;;;;;;;;;;;;;;;;;;;;;;;;;;;;;;;;;;;;;;;;;;;;;;;;;;;;;;;;;;;;;;;;;;;;;;;;;;;;;;;;;;;;;;;;;;;;;;;;;;;;;;;;;;0,70414;Not Applicable;MS;;;;0,032;Not Applicable;MS;0,5121;Not Applicable;MS;;;;0,161;Not Applicable;MS;;;;;;;;;;15,77;Not Applicable;MS;;;;15,39;Not Applicable;MS;;;;;;;36,92;Not Applicable;MS;;;;;;;;;;;;;;;;;;;;;;;;;;;;;;;;;;;;;;;;;;;;;;;;;;;;;;;;;;;;;;;;;;;;;;;;;;;;3,72;ppm;Unknown;0,9875;ppm;Unknown;;;;;;;;;;;;;;;;;;;;;;;;;;;;;;;;;;;;;5,29;Not Applicable;MS;;;;;;;;;;;;;;;;;;;;;;;;;;;;;;;;;;;;;;;;;;;;;;;;;;;;;;;;;;;;;;;;;;;;;;;;;;;;;;;;;;;;;;;;;;;;;;;;;1,367;ppm;Unknown;;;;;;;13,68;ppm;Unknown;;;;;;;;;;;;;;;;;;;;;;1226;ppm;Unknown;;;;;;;;;;;;;0,123;ppm;Unknown;;;;;;;;;;;;;;;;;;;;;;;;;;;;;;;;;;;;;;;;;;;;;;;;;;;;;;;;;;;;;;;