SAMPLE ID;IGSN;EXPEDITION ID;REFERENCES;LATITUDE;LONGITUDE;LOC PREC;MIN ELEVATION;MAX ELEVATION;TECTONIC SETTING;MIN AGE;AGE;MAX AGE;METHOD;ANALYZED MATERIAL;ROCK TYPE;ROCK NAME;MINERAL;SIO2;SIO2 Units;SIO2 Method;TIO2;TIO2 Units;TIO2 Method;AL2O3;AL2O3 Units;AL2O3 Method;CR2O3;CR2O3 Units;CR2O3 Method;FE2O3;FE2O3 Units;FE2O3 Method;FE2O3T;FE2O3T Units;FE2O3T Method;FEO;FEO Units;FEO Method;FEOT;FEOT Units;FEOT Method;NIO;NIO Units;NIO Method;MNO;MNO Units;MNO Method;MGO;MGO Units;MGO Method;CAO;CAO Units;CAO Method;SRO;SRO Units;SRO Method;NA2O;NA2O Units;NA2O Method;K2O;K2O Units;K2O Method;P2O5;P2O5 Units;P2O5 Method;BAO;BAO Units;BAO Method;LOI;LOI Units;LOI Method;H2O;H2O Units;H2O Method;H2O_M;H2O_M Units;H2O_M Method;H2O_P;H2O_P Units;H2O_P Method;SO3;SO3 Units;SO3 Method;COO;COO Units;COO Method;MN;MN Units;MN Method;NI;NI Units;NI Method;CO;CO Units;CO Method;CU;CU Units;CU Method;CD;CD Units;CD Method;ZN;ZN Units;ZN Method;AS;AS Units;AS Method;AG;AG Units;AG Method;S;S Units;S Method;ZRO2;ZRO2 Units;ZRO2 Method;AL;AL Units;AL Method;CA;CA Units;CA Method;SR87_SR86;SR87_SR86 Units;SR87_SR86 Method;SR87_SR86_INI;SR87_SR86_INI Units;SR87_SR86_INI Method;RB87_SR86;RB87_SR86 Units;RB87_SR86 Method;ND143_ND144;ND143_ND144 Units;ND143_ND144 Method;ND143_ND144_INI;ND143_ND144_INI Units;ND143_ND144_INI Method;SM147_ND144;SM147_ND144 Units;SM147_ND144 Method;E_ND;E_ND Units;E_ND Method;E_ND_INI;E_ND_INI Units;E_ND_INI Method;PB204_PB206;PB204_PB206 Units;PB204_PB206 Method;PB206_PB204;PB206_PB204 Units;PB206_PB204 Method;PB206_PB204_INI;PB206_PB204_INI Units;PB206_PB204_INI Method;PB207_PB204;PB207_PB204 Units;PB207_PB204 Method;PB207_PB204_INI;PB207_PB204_INI Units;PB207_PB204_INI Method;PB207_PB206;PB207_PB206 Units;PB207_PB206 Method;PB208_PB204;PB208_PB204 Units;PB208_PB204 Method;PB208_PB204_INI;PB208_PB204_INI Units;PB208_PB204_INI Method;PB208_PB206;PB208_PB206 Units;PB208_PB206 Method;HF176_HF177;HF176_HF177 Units;HF176_HF177 Method;RE187_OS188;RE187_OS188 Units;RE187_OS188 Method;OS187_OS188;OS187_OS188 Units;OS187_OS188 Method;OS187_OS188_INI;OS187_OS188_INI Units;OS187_OS188_INI Method;G_OS;G_OS Units;G_OS Method;G_OS_INI;G_OS_INI Units;G_OS_INI Method;ND143_ND144_INI;ND143_ND144_INI Units;ND143_ND144_INI Method;PB206_PB204_INI;PB206_PB204_INI Units;PB206_PB204_INI Method;PB207_PB204_INI;PB207_PB204_INI Units;PB207_PB204_INI Method;PB208_PB204_INI;PB208_PB204_INI Units;PB208_PB204_INI Method;SR87_SR86_INI;SR87_SR86_INI Units;SR87_SR86_INI Method;HE;HE Units;HE Method;HE3;HE3 Units;HE3 Method;HE3_HE4_R_RA;HE3_HE4_R_RA Units;HE3_HE4_R_RA Method;AR36;AR36 Units;AR36 Method;AR40;AR40 Units;AR40 Method;AR40_AR36;AR40_AR36 Units;AR40_AR36 Method;NE20;NE20 Units;NE20 Method;NE20_NE22;NE20_NE22 Units;NE20_NE22 Method;NE21_NE22;NE21_NE22 Units;NE21_NE22 Method;LA;LA Units;LA Method;CE;CE Units;CE Method;PR;PR Units;PR Method;ND;ND Units;ND Method;SM;SM Units;SM Method;EU;EU Units;EU Method;GD;GD Units;GD Method;TB;TB Units;TB Method;DY;DY Units;DY Method;HO;HO Units;HO Method;ER;ER Units;ER Method;TM;TM Units;TM Method;YB;YB Units;YB Method;LU;LU Units;LU Method;CO2;CO2 Units;CO2 Method;F;F Units;F Method;CL;CL Units;CL Method;U238_PB204;U238_PB204 Units;U238_PB204 Method;TH230_TH232;TH230_TH232 Units;TH230_TH232 Method;RA226_ACTIVITY;RA226_ACTIVITY Units;RA226_ACTIVITY Method;PB210_RA226;PB210_RA226 Units;PB210_RA226 Method;PB210_ACTIVITY;PB210_ACTIVITY Units;PB210_ACTIVITY Method;AG;AG Units;AG Method;AL;AL Units;AL Method;AS;AS Units;AS Method;AU;AU Units;AU Method;B;B Units;B Method;BA;BA Units;BA Method;BE;BE Units;BE Method;BI;BI Units;BI Method;CA;CA Units;CA Method;CD;CD Units;CD Method;CO;CO Units;CO Method;CR;CR Units;CR Method;CS;CS Units;CS Method;CU;CU Units;CU Method;GA;GA Units;GA Method;GER;GER Units;GER Method;HF;HF Units;HF Method;INDIUM;INDIUM Units;INDIUM Method;IR;IR Units;IR Method;K;K Units;K Method;LI;LI Units;LI Method;MN;MN Units;MN Method;MO;MO Units;MO Method;NA;NA Units;NA Method;NB;NB Units;NB Method;NI;NI Units;NI Method;OS;OS Units;OS Method;P;P Units;P Method;PB;PB Units;PB Method;PD;PD Units;PD Method;PT;PT Units;PT Method;RB;RB Units;RB Method;RE;RE Units;RE Method;RH;RH Units;RH Method;RU;RU Units;RU Method;S;S Units;S Method;SB;SB Units;SB Method;SC;SC Units;SC Method;SN;SN Units;SN Method;SR;SR Units;SR Method;TA;TA Units;TA Method;TH;TH Units;TH Method;TI;TI Units;TI Method;TL;TL Units;TL Method;U;U Units;U Method;V;V Units;V Method;W;W Units;W Method;Y;Y Units;Y Method;ZN;ZN Units;ZN Method;ZR;ZR Units;ZR Method;DELTA_O18;DELTA_O18 Units;DELTA_O18 Method;DELTA_C13;DELTA_C13 Units;DELTA_C13 Method;DELTA_MO98;DELTA_MO98 Units;DELTA_MO98 Method;DELTA_ZN66;DELTA_ZN66 Units;DELTA_ZN66 Method;DELTA_ZN68;DELTA_ZN68 Units;DELTA_ZN68 Method;OS188;OS188 Units;OS188 Method;FE3P_FET;FE3P_FET Units;FE3P_FET Method;TI;TI Units;TI Method;AS;AS Units;AS Method;AS;AS Units;AS Method;GER;GER Units;GER Method;H2O_M;H2O_M Units;H2O_M Method;H2O_P;H2O_P Units;H2O_P Method;H2O_M;H2O_M Units;H2O_M Method;H2O_P;H2O_P Units;H2O_P Method;INDIUM;INDIUM Units;INDIUM Method
GROSCAMP-W-232392;;GROSSMAN-CAMP;GROSSMAN, 1991;39,217;-77,4333;0,001;;;CONTINENTAL_RIFT;;;;"AAS; COL; ES; ICP; INAA; TITR; Unknown";WHOLE ROCK;IGNEOUS:VOLCANIC:MAFIC;DIABASE;;49,9;wt%;COL;0,73;wt%;COL;15,5;wt%;COL;;;;2,8;wt%;Unknown;;;;7,6;wt%;TITR;;;;;;;0,19;wt%;AAS;7,8;wt%;AAS;11;wt%;Unknown;;;;2,16;wt%;Unknown;0,37;wt%;AAS;0,1;wt%;COL;;;;;;;;;;0,36;wt%;TITR;0,61;wt%;TITR;;;;;;;;;;52;ppm;Unknown;46;ppm;Unknown;69;ppm;Unknown;;;;93;ppm;Unknown;;;;;;;0,05;ppm;INAA;;;;;;;;;;;;;;;;;;;;;;;;;;;;;;;;;;;;;;;;;;;;;;;;;;;;;;;;;;;;;;;;;;;;;;;;;;;;;;;;;;;;;;;;;;;;;;;;;;;;;;;;;;;;;;;;;;;;;;;;;5,7;ppm;INAA;10;ppm;INAA;;;;;;;2,3;ppm;INAA;0,75;ppm;INAA;;;;0,53;ppm;INAA;;;;;;;;;;;;;2,4;ppm;INAA;0,36;ppm;INAA;0,02;ppm;TITR;;;;;;;;;;;;;;;;;;;;;;;;;;;;;;;;;;4;ppm;ES;171;ppm;Unknown;;;;;;;;;;;;;46;ppm;Unknown;250;ppm;Unknown;0,7;ppm;INAA;69;ppm;Unknown;;;;;;;1,3;ppm;INAA;;;;;;;;;;;;;;;;;;;;;;2,7;ppm;ICP;52;ppm;Unknown;;;;;;;;;;0,6;ppm;Unknown;1,2;ppm;Unknown;12;ppm;Unknown;;;;;;;;;;0,05;ppm;INAA;;;;43;ppm;INAA;;;;146;ppm;Unknown;0,21;ppm;INAA;1,2;ppm;INAA;;;;;;;;;;;;;;;;27;ppm;Unknown;93;ppm;Unknown;68;ppm;Unknown;;;;;;;;;;;;;;;;;;;;;;;;;;;;;;;;;;0,36;wt%;TITR;0,61;wt%;TITR;0,36;wt%;TITR;0,61;wt%;TITR;;;
GROSCAMP-W-232393;;GROSSMAN-CAMP;GROSSMAN, 1991;39,217;-77,4333;0,001;;;CONTINENTAL_RIFT;;;;"AAS; COL; ES; ICP; INAA; TITR; Unknown";WHOLE ROCK;IGNEOUS:VOLCANIC:MAFIC;DIABASE;;50,2;wt%;COL;0,73;wt%;COL;15,2;wt%;COL;;;;2,9;wt%;Unknown;;;;7,1;wt%;TITR;;;;;;;0,18;wt%;AAS;7,8;wt%;AAS;11;wt%;Unknown;;;;2,16;wt%;Unknown;0,35;wt%;AAS;0,1;wt%;COL;;;;;;;;;;0,21;wt%;TITR;0,75;wt%;TITR;;;;;;;;;;51;ppm;Unknown;48;ppm;Unknown;66;ppm;Unknown;;;;92;ppm;Unknown;;;;;;;0,07;ppm;INAA;;;;;;;;;;;;;;;;;;;;;;;;;;;;;;;;;;;;;;;;;;;;;;;;;;;;;;;;;;;;;;;;;;;;;;;;;;;;;;;;;;;;;;;;;;;;;;;;;;;;;;;;;;;;;;;;;;;;;;;;;5,4;ppm;INAA;12;ppm;INAA;;;;;;;2,2;ppm;INAA;0,74;ppm;INAA;;;;0,52;ppm;INAA;;;;;;;;;;;;;2,2;ppm;INAA;0,35;ppm;INAA;0,06;ppm;TITR;;;;;;;;;;;;;;;;;;;;;;;;;;;;;;;;;;4;ppm;ES;100;ppm;Unknown;;;;;;;;;;;;;48;ppm;Unknown;250;ppm;Unknown;0,76;ppm;INAA;66;ppm;Unknown;;;;;;;1,5;ppm;INAA;;;;;;;;;;;;;;;;;;;;;;2,8;ppm;ICP;51;ppm;Unknown;;;;;;;;;;0,6;ppm;Unknown;1,9;ppm;Unknown;8;ppm;Unknown;;;;;;;;;;0,07;ppm;INAA;;;;44;ppm;INAA;;;;131;ppm;Unknown;0,25;ppm;INAA;;;;;;;;;;;;;;;;;;;24;ppm;Unknown;92;ppm;Unknown;64;ppm;Unknown;;;;;;;;;;;;;;;;;;;;;;;;;;;;;;;;;;0,21;wt%;TITR;0,75;wt%;TITR;0,21;wt%;TITR;0,75;wt%;TITR;;;
GROSCAMP-W-232394;;GROSSMAN-CAMP;GROSSMAN, 1991;39,9006;-76,1167;0,001;;;CONTINENTAL_RIFT;;;;"AAS; COL; ES; ICP; ICPMS; INAA; TITR; Unknown";WHOLE ROCK;IGNEOUS:VOLCANIC:MAFIC;DIABASE;;47,1;wt%;COL;0,43;wt%;COL;14,5;wt%;COL;;;;2,7;wt%;Unknown;;;;7,8;wt%;TITR;;;;;;;0,18;wt%;AAS;12,6;wt%;AAS;9,9;wt%;Unknown;;;;1,75;wt%;Unknown;0,61;wt%;AAS;0,06;wt%;COL;;;;;;;;;;0,16;wt%;TITR;0,94;wt%;TITR;;;;;;;;;;400;ppm;Unknown;67;ppm;Unknown;95;ppm;Unknown;;;;89;ppm;Unknown;;;;;;;0,09;ppm;INAA;;;;;;;;;;;;;;;;;;;;;;;;;;;;;;;;;;;;;;;;;;;;;;;;;;;;;;;;;;;;;;;;;;;;;;;;;;;;;;;;;;;;;;;;;;;;;;;;;;;;;;;;;;;;;;;;;;;;;;;;;6,2;ppm;INAA;14;ppm;INAA;;;;;;;1,67;ppm;INAA;0,5;ppm;INAA;;;;0,44;ppm;INAA;;;;;;;;;;;;;2,5;ppm;INAA;0,41;ppm;INAA;0,12;ppm;TITR;;;;;;;;;;;;;;;;;;;;;;;;;;;;;;;;;;10;ppm;ES;120;ppm;Unknown;;;;;;;;;;;;;67;ppm;Unknown;950;ppm;Unknown;1,9;ppm;INAA;95;ppm;Unknown;;;;;;;1,2;ppm;INAA;;;;;;;;;;;;;;;;;;;;;;2,8;ppm;ICP;400;ppm;Unknown;;;;;;;;;;15;ppm;Unknown;15;ppm;Unknown;28;ppm;Unknown;;;;1;ppm;Unknown;2;ppm;ICPMS;0,09;ppm;INAA;;;;43;ppm;INAA;;;;99;ppm;Unknown;0,21;ppm;INAA;1,4;ppm;INAA;;;;;;;;;;;;;;;;27;ppm;Unknown;89;ppm;Unknown;58;ppm;Unknown;;;;;;;;;;;;;;;;;;;;;;;;;;;;;;;;;;0,16;wt%;TITR;0,94;wt%;TITR;0,16;wt%;TITR;0,94;wt%;TITR;;;
GROSCAMP-W-232395;;GROSSMAN-CAMP;GROSSMAN, 1991;39,9006;-76,1167;0,001;;;CONTINENTAL_RIFT;;;;"AAS; COL; ES; ICP; INAA; TITR; Unknown";WHOLE ROCK;IGNEOUS:VOLCANIC:MAFIC;DIABASE;;47,2;wt%;COL;0,42;wt%;COL;14,9;wt%;COL;;;;2,4;wt%;Unknown;;;;7,8;wt%;TITR;;;;;;;0,18;wt%;AAS;12,2;wt%;AAS;10,2;wt%;Unknown;;;;1,89;wt%;Unknown;0,61;wt%;AAS;0,06;wt%;COL;;;;;;;;;;0,25;wt%;TITR;0,95;wt%;TITR;;;;;;;;;;390;ppm;Unknown;65;ppm;Unknown;100;ppm;Unknown;;;;89;ppm;Unknown;;;;;;;0,09;ppm;INAA;;;;;;;;;;;;;;;;;;;;;;;;;;;;;;;;;;;;;;;;;;;;;;;;;;;;;;;;;;;;;;;;;;;;;;;;;;;;;;;;;;;;;;;;;;;;;;;;;;;;;;;;;;;;;;;;;;;;;;;;;5,9;ppm;INAA;12;ppm;INAA;;;;;;;1,6;ppm;INAA;0,47;ppm;INAA;;;;0,44;ppm;INAA;;;;;;;;;;;;;2,5;ppm;INAA;0,4;ppm;INAA;0,21;ppm;TITR;;;;;;;;;;;;;;;;;;;;;;;;;;;;;;;;;;12;ppm;ES;127;ppm;Unknown;;;;;;;;;;;;;65;ppm;Unknown;910;ppm;Unknown;2,5;ppm;INAA;100;ppm;Unknown;;;;;;;1,2;ppm;INAA;;;;;;;;;;;;;;;;;;;;;;2,4;ppm;ICP;390;ppm;Unknown;;;;;;;;;;16;ppm;Unknown;11;ppm;Unknown;29;ppm;Unknown;;;;0,6;ppm;Unknown;;;;0,09;ppm;INAA;;;;43;ppm;INAA;;;;113;ppm;Unknown;0,19;ppm;INAA;1,3;ppm;INAA;;;;;;;;;;;;;;;;25;ppm;Unknown;89;ppm;Unknown;51;ppm;Unknown;;;;;;;;;;;;;;;;;;;;;;;;;;;;;;;;;;0,25;wt%;TITR;0,95;wt%;TITR;0,25;wt%;TITR;0,95;wt%;TITR;;;
GROSCAMP-W-232396;;GROSSMAN-CAMP;GROSSMAN, 1991;39,9006;-76,1167;0,001;;;CONTINENTAL_RIFT;;;;"AAS; COL; ES; ICP; INAA; TITR; Unknown";WHOLE ROCK;IGNEOUS:VOLCANIC:MAFIC;DIABASE;;45,9;wt%;COL;0,38;wt%;COL;14,5;wt%;COL;;;;2,9;wt%;Unknown;;;;7,6;wt%;TITR;;;;;;;0,18;wt%;AAS;13,5;wt%;AAS;9,5;wt%;Unknown;;;;1,48;wt%;Unknown;0,46;wt%;AAS;0,05;wt%;COL;;;;;;;;;;0,24;wt%;TITR;1,3;wt%;TITR;;;;;;;;;;460;ppm;Unknown;70;ppm;Unknown;90;ppm;Unknown;;;;88;ppm;Unknown;;;;;;;0,07;ppm;INAA;;;;;;;;;;;;;;;;;;;;;;;;;;;;;;;;;;;;;;;;;;;;;;;;;;;;;;;;;;;;;;;;;;;;;;;;;;;;;;;;;;;;;;;;;;;;;;;;;;;;;;;;;;;;;;;;;;;;;;;;;5,2;ppm;INAA;11;ppm;INAA;;;;;;;1,4;ppm;INAA;0,43;ppm;INAA;;;;0,36;ppm;INAA;;;;;;;;;;;;;2,1;ppm;INAA;0,32;ppm;INAA;0,49;ppm;TITR;;;;;;;;;;;;;;;;;;;;;;;;;;;;;;;;;;3;ppm;ES;98;ppm;Unknown;;;;;;;;;;;;;70;ppm;Unknown;1080;ppm;Unknown;2;ppm;INAA;90;ppm;Unknown;;;;;;;0,91;ppm;INAA;;;;;;;;;;;;;;;;;;;;;;2,2;ppm;ICP;460;ppm;Unknown;;;;;;;;;;16;ppm;Unknown;14;ppm;Unknown;20;ppm;Unknown;;;;0,5;ppm;Unknown;;;;0,07;ppm;INAA;;;;39;ppm;INAA;;;;77;ppm;Unknown;0,16;ppm;INAA;0,9;ppm;INAA;;;;;;;;;;;;;;;;22;ppm;Unknown;88;ppm;Unknown;49;ppm;Unknown;;;;;;;;;;;;;;;;;;;;;;;;;;;;;;;;;;0,24;wt%;TITR;1,3;wt%;TITR;0,24;wt%;TITR;1,3;wt%;TITR;;;
GROSCAMP-W-232397;;GROSSMAN-CAMP;GROSSMAN, 1991;39,9006;-76,1167;0,001;;;CONTINENTAL_RIFT;;;;"AAS; COL; ES; INAA; TITR; Unknown";WHOLE ROCK;IGNEOUS:VOLCANIC:MAFIC;DIABASE;;45,8;wt%;COL;0,37;wt%;COL;14,4;wt%;COL;;;;2,2;wt%;Unknown;;;;8,2;wt%;TITR;;;;;;;0,18;wt%;AAS;13,8;wt%;AAS;9,5;wt%;Unknown;;;;1,48;wt%;Unknown;0,53;wt%;AAS;0,06;wt%;COL;;;;;;;;;;0,28;wt%;TITR;1,5;wt%;TITR;;;;;;;;;;470;ppm;Unknown;70;ppm;Unknown;91;ppm;Unknown;;;;92;ppm;Unknown;;;;;;;0,06;ppm;INAA;;;;;;;;;;;;;;;;;;;;;;;;;;;;;;;;;;;;;;;;;;;;;;;;;;;;;;;;;;;;;;;;;;;;;;;;;;;;;;;;;;;;;;;;;;;;;;;;;;;;;;;;;;;;;;;;;;;;;;;;;5,2;ppm;INAA;11;ppm;INAA;;;;;;;1,4;ppm;INAA;0,42;ppm;INAA;;;;0,38;ppm;INAA;;;;;;;;;;;;;2,1;ppm;INAA;0,37;ppm;INAA;0,31;ppm;TITR;;;;;;;;;;;;;;;;;;;;;;;;;;;;;;;;;;3;ppm;ES;98;ppm;Unknown;;;;;;;;;;;;;70;ppm;Unknown;1120;ppm;Unknown;2,6;ppm;INAA;91;ppm;Unknown;;;;;;;0,93;ppm;INAA;;;;;;;;;;;;;;;;;;;;;;;;;470;ppm;Unknown;;;;;;;;;;22;ppm;Unknown;12;ppm;Unknown;22;ppm;Unknown;;;;0,6;ppm;Unknown;;;;0,06;ppm;INAA;;;;38;ppm;INAA;;;;81;ppm;Unknown;0,16;ppm;INAA;0,95;ppm;INAA;;;;;;;;;;;;;;;;20;ppm;Unknown;92;ppm;Unknown;48;ppm;Unknown;;;;;;;;;;;;;;;;;;;;;;;;;;;;;;;;;;0,28;wt%;TITR;1,5;wt%;TITR;0,28;wt%;TITR;1,5;wt%;TITR;;;
GROSCAMP-W-232398;;GROSSMAN-CAMP;GROSSMAN, 1991;39,9006;-76,1167;0,001;;;CONTINENTAL_RIFT;;;;"AAS; COL; ES; ICPMS; INAA; TITR; Unknown";WHOLE ROCK;IGNEOUS:VOLCANIC:MAFIC;DIABASE;;45,9;wt%;COL;0,36;wt%;COL;14;wt%;COL;;;;1,9;wt%;Unknown;;;;8,5;wt%;TITR;;;;;;;0,18;wt%;AAS;14,6;wt%;AAS;9,3;wt%;Unknown;;;;1,48;wt%;Unknown;0,61;wt%;AAS;0,05;wt%;COL;;;;;;;;;;0,16;wt%;TITR;1,4;wt%;TITR;;;;;;;;;;520;ppm;Unknown;72;ppm;Unknown;91;ppm;Unknown;;;;85;ppm;Unknown;;;;;;;0,06;ppm;INAA;;;;;;;;;;;;;;;;;;;;;;;;;;;;;;;;;;;;;;;;;;;;;;;;;;;;;;;;;;;;;;;;;;;;;;;;;;;;;;;;;;;;;;;;;;;;;;;;;;;;;;;;;;;;;;;;;;;;;;;;;4,8;ppm;INAA;11;ppm;INAA;;;;;;;1,4;ppm;INAA;0,39;ppm;INAA;;;;0,33;ppm;INAA;;;;;;;;;;;;;1,8;ppm;INAA;0,34;ppm;INAA;0,12;ppm;TITR;;;;;;;;;;;;;;;;;;;;;;;;;;;;;;;;;;3;ppm;ES;70;ppm;Unknown;;;;;;;;;;;;;72;ppm;Unknown;1200;ppm;Unknown;1,6;ppm;INAA;91;ppm;Unknown;;;;;;;0,86;ppm;INAA;;;;;;;;;;;;;;;;;;;;;;;;;520;ppm;Unknown;;;;;;;;;;15;ppm;Unknown;15;ppm;Unknown;27;ppm;Unknown;;;;1;ppm;Unknown;2,7;ppm;ICPMS;0,06;ppm;INAA;;;;37;ppm;INAA;;;;77;ppm;Unknown;;;;1;ppm;INAA;;;;;;;;;;;;;;;;21;ppm;Unknown;85;ppm;Unknown;45;ppm;Unknown;;;;;;;;;;;;;;;;;;;;;;;;;;;;;;;;;;0,16;wt%;TITR;1,4;wt%;TITR;0,16;wt%;TITR;1,4;wt%;TITR;;;
GROSCAMP-W-232399;;GROSSMAN-CAMP;GROSSMAN, 1991;39,9006;-76,1167;0,001;;;CONTINENTAL_RIFT;;;;"AAS; COL; ES; ICP; INAA; TITR; Unknown";WHOLE ROCK;IGNEOUS:VOLCANIC:MAFIC;DIABASE;;46,5;wt%;COL;0,41;wt%;COL;14,7;wt%;COL;;;;2,3;wt%;Unknown;;;;7,8;wt%;TITR;;;;;;;0,17;wt%;AAS;12,3;wt%;AAS;10,3;wt%;Unknown;;;;1,62;wt%;Unknown;0,29;wt%;AAS;0,06;wt%;COL;;;;;;;;;;0,29;wt%;TITR;1,2;wt%;TITR;;;;;;;;;;460;ppm;Unknown;65;ppm;Unknown;98;ppm;Unknown;;;;81;ppm;Unknown;;;;;;;0,11;ppm;INAA;;;;;;;;;;;;;;;;;;;;;;;;;;;;;;;;;;;;;;;;;;;;;;;;;;;;;;;;;;;;;;;;;;;;;;;;;;;;;;;;;;;;;;;;;;;;;;;;;;;;;;;;;;;;;;;;;;;;;;;;;6,2;ppm;INAA;13;ppm;INAA;;;;;;;1,6;ppm;INAA;0,5;ppm;INAA;;;;0,39;ppm;INAA;;;;;;;;;;;;;2,4;ppm;INAA;0,38;ppm;INAA;0,74;ppm;TITR;;;;;;;;;;;;;;;;;;;;;;;;;;;;;;;;;;3;ppm;ES;98;ppm;Unknown;;;;;;;;;;;;;65;ppm;Unknown;940;ppm;Unknown;1,3;ppm;INAA;98;ppm;Unknown;;;;;;;1;ppm;INAA;;;;;;;;;;;;;;;;;;;;;;2,6;ppm;ICP;460;ppm;Unknown;;;;;;;;;;16;ppm;Unknown;13;ppm;Unknown;14;ppm;Unknown;;;;;;;;;;0,11;ppm;INAA;;;;41;ppm;INAA;;;;72;ppm;Unknown;0,2;ppm;INAA;1,3;ppm;INAA;;;;;;;;;;;;;;;;24;ppm;Unknown;81;ppm;Unknown;56;ppm;Unknown;;;;;;;;;;;;;;;;;;;;;;;;;;;;;;;;;;0,29;wt%;TITR;1,2;wt%;TITR;0,29;wt%;TITR;1,2;wt%;TITR;;;
GROSCAMP-W-232400;;GROSSMAN-CAMP;GROSSMAN, 1991;39,9006;-76,1167;0,001;;;CONTINENTAL_RIFT;;;;"AAS; COL; ES; ICP; INAA; TITR; Unknown";WHOLE ROCK;IGNEOUS:VOLCANIC:MAFIC;DIABASE;;46,4;wt%;COL;0,4;wt%;COL;14,7;wt%;COL;;;;2,8;wt%;Unknown;;;;7,2;wt%;TITR;;;;;;;0,17;wt%;AAS;12,4;wt%;AAS;10,2;wt%;Unknown;;;;1,62;wt%;Unknown;0,38;wt%;AAS;0,07;wt%;COL;;;;;;;;;;0,26;wt%;TITR;1,2;wt%;TITR;;;;;;;;;;450;ppm;Unknown;64;ppm;Unknown;96;ppm;Unknown;;;;94;ppm;Unknown;;;;;;;0,06;ppm;INAA;;;;;;;;;;;;;;;;;;;;;;;;;;;;;;;;;;;;;;;;;;;;;;;;;;;;;;;;;;;;;;;;;;;;;;;;;;;;;;;;;;;;;;;;;;;;;;;;;;;;;;;;;;;;;;;;;;;;;;;;;5,8;ppm;INAA;12;ppm;INAA;;;;;;;1,6;ppm;INAA;0,44;ppm;INAA;;;;0,42;ppm;INAA;;;;;;;;;;;;;2,4;ppm;INAA;0,38;ppm;INAA;0,86;ppm;TITR;;;;;;;;;;;;;;;;;;;;;;;;;;;;;;;;;;2;ppm;ES;96;ppm;Unknown;;;;;;;;;;;;;64;ppm;Unknown;920;ppm;Unknown;0,83;ppm;INAA;96;ppm;Unknown;;;;;;;1;ppm;INAA;;;;;;;;;;;;;;;;;;;;;;2,6;ppm;ICP;450;ppm;Unknown;;;;;;;;;;15;ppm;Unknown;11;ppm;Unknown;13;ppm;Unknown;;;;;;;;;;0,06;ppm;INAA;;;;41;ppm;INAA;;;;73;ppm;Unknown;0,2;ppm;INAA;1,5;ppm;INAA;;;;;;;;;;;;;;;;27;ppm;Unknown;94;ppm;Unknown;53;ppm;Unknown;;;;;;;;;;;;;;;;;;;;;;;;;;;;;;;;;;0,26;wt%;TITR;1,2;wt%;TITR;0,26;wt%;TITR;1,2;wt%;TITR;;;
GROSCAMP-W-232401;;GROSSMAN-CAMP;GROSSMAN, 1991;40,1161;-76,7211;0,001;;;CONTINENTAL_RIFT;;;;"AAS; COL; ES; ICP; INAA; TITR; Unknown";WHOLE ROCK;IGNEOUS:VOLCANIC:MAFIC;DIABASE;;51,2;wt%;COL;1,2;wt%;COL;14,5;wt%;COL;;;;0,9;wt%;Unknown;;;;9,8;wt%;TITR;;;;;;;0,18;wt%;AAS;7,2;wt%;AAS;10,3;wt%;Unknown;;;;2,56;wt%;Unknown;0,59;wt%;AAS;0,14;wt%;COL;;;;;;;;;;0,07;wt%;TITR;0,21;wt%;TITR;;;;;;;;;;55;ppm;Unknown;46;ppm;Unknown;110;ppm;Unknown;;;;88;ppm;Unknown;;;;;;;0,03;ppm;INAA;;;;;;;;;;;;;;;;;;;;;;;;;;;;;;;;;;;;;;;;;;;;;;;;;;;;;;;;;;;;;;;;;;;;;;;;;;;;;;;;;;;;;;;;;;;;;;;;;;;;;;;;;;;;;;;;;;;;;;;;;11;ppm;INAA;23;ppm;INAA;;;;;;;3,7;ppm;INAA;1,1;ppm;INAA;;;;0,7;ppm;INAA;;;;;;;;;;;;;2,2;ppm;INAA;0,35;ppm;INAA;0,03;ppm;TITR;;;;;;;;;;;;;;;;;;;;;;;;;;;;;;;;;;5;ppm;ES;170;ppm;Unknown;;;;;;;;;;;;;46;ppm;Unknown;220;ppm;Unknown;1;ppm;INAA;110;ppm;Unknown;;;;;;;2,5;ppm;INAA;;;;;;;;;;;;;;;;;;;;;;7,3;ppm;ICP;55;ppm;Unknown;;;;;;;;;;13;ppm;Unknown;7,8;ppm;Unknown;22;ppm;Unknown;;;;;;;;;;0,03;ppm;INAA;;;;36;ppm;INAA;;;;182;ppm;Unknown;0,52;ppm;INAA;2,5;ppm;INAA;;;;;;;;;;;;;;;;27;ppm;Unknown;88;ppm;Unknown;112;ppm;Unknown;;;;;;;;;;;;;;;;;;;;;;;;;;;;;;;;;;0,07;wt%;TITR;0,21;wt%;TITR;0,07;wt%;TITR;0,21;wt%;TITR;;;
GROSCAMP-W-232402;;GROSSMAN-CAMP;GROSSMAN, 1991;40,1164;-76,7253;0,001;;;CONTINENTAL_RIFT;;;;"AAS; COL; ES; ICP; INAA; TITR; Unknown";WHOLE ROCK;IGNEOUS:VOLCANIC:MAFIC;DIABASE;;52;wt%;COL;0,99;wt%;COL;12,7;wt%;COL;;;;1,6;wt%;Unknown;;;;8,6;wt%;TITR;;;;;;;0,18;wt%;AAS;10,1;wt%;AAS;9,9;wt%;Unknown;;;;1,89;wt%;Unknown;0,58;wt%;AAS;0,12;wt%;COL;;;;;;;;;;0,16;wt%;TITR;0,45;wt%;TITR;;;;;;;;;;100;ppm;Unknown;54;ppm;Unknown;98;ppm;Unknown;;;;90;ppm;Unknown;;;;;;;0,03;ppm;INAA;;;;;;;;;;;;;;;;;;;;;;;;;;;;;;;;;;;;;;;;;;;;;;;;;;;;;;;;;;;;;;;;;;;;;;;;;;;;;;;;;;;;;;;;;;;;;;;;;;;;;;;;;;;;;;;;;;;;;;;;;9,4;ppm;INAA;19;ppm;INAA;;;;;;;3,1;ppm;INAA;0,93;ppm;INAA;;;;0,54;ppm;INAA;;;;;;;;;;;;;1,8;ppm;INAA;0,29;ppm;INAA;0,03;ppm;TITR;;;;;;;;;;;;;;;;;;;;;;;;;;;;;;;;;;5;ppm;ES;142;ppm;Unknown;;;;;;;;;;;;;54;ppm;Unknown;580;ppm;Unknown;0,67;ppm;INAA;98;ppm;Unknown;;;;;;;2;ppm;INAA;;;;;;;;;;;;;;;;;;;;;;6,3;ppm;ICP;100;ppm;Unknown;;;;;;;;;;9,2;ppm;Unknown;11;ppm;Unknown;17;ppm;Unknown;;;;;;;;;;0,03;ppm;INAA;0,31;ppm;INAA;38;ppm;INAA;;;;165;ppm;Unknown;0,5;ppm;INAA;1,5;ppm;INAA;;;;;;;;;;;;;;;;24;ppm;Unknown;90;ppm;Unknown;88;ppm;Unknown;;;;;;;;;;;;;;;;;;;;;;;;;;;;;;;;;;0,16;wt%;TITR;0,45;wt%;TITR;0,16;wt%;TITR;0,45;wt%;TITR;;;
GROSCAMP-W-232403;;GROSSMAN-CAMP;GROSSMAN, 1991;40,1164;-76,7253;0,001;;;CONTINENTAL_RIFT;;;;"AAS; COL; ES; ICP; INAA; TITR; Unknown";WHOLE ROCK;IGNEOUS:VOLCANIC:MAFIC;DIABASE;;52,5;wt%;COL;0,92;wt%;COL;11,9;wt%;COL;;;;1,6;wt%;Unknown;;;;8,9;wt%;TITR;;;;;;;0,19;wt%;AAS;11,4;wt%;AAS;10;wt%;Unknown;;;;1,75;wt%;Unknown;0,4;wt%;AAS;0,1;wt%;COL;;;;;;;;;;0,12;wt%;TITR;0,44;wt%;TITR;;;;;;;;;;150;ppm;Unknown;57;ppm;Unknown;82;ppm;Unknown;;;;88;ppm;Unknown;;;;;;;0,01;ppm;INAA;;;;;;;;;;;;;;;;;;;;;;;;;;;;;;;;;;;;;;;;;;;;;;;;;;;;;;;;;;;;;;;;;;;;;;;;;;;;;;;;;;;;;;;;;;;;;;;;;;;;;;;;;;;;;;;;;;;;;;;;;8,4;ppm;INAA;19;ppm;INAA;;;;;;;2,87;ppm;INAA;0,82;ppm;INAA;;;;0,53;ppm;INAA;;;;;;;;;;;;;1,8;ppm;INAA;0,29;ppm;INAA;0,01;ppm;TITR;;;;;;;;;;;;;;;;;;;;;;;;;;;;;;;;;;3;ppm;ES;119;ppm;Unknown;;;;;;;;;;;;;57;ppm;Unknown;670;ppm;Unknown;0,75;ppm;INAA;82;ppm;Unknown;;;;;;;1,9;ppm;INAA;;;;;;;;;;;;;;;;;;;;;;5,5;ppm;ICP;150;ppm;Unknown;;;;;;;;;;8,4;ppm;Unknown;13;ppm;Unknown;12;ppm;Unknown;;;;;;;;;;0,01;ppm;INAA;;;;38;ppm;INAA;;;;146;ppm;Unknown;0,4;ppm;INAA;1,5;ppm;INAA;;;;;;;;;;;;;;;;16;ppm;Unknown;88;ppm;Unknown;77;ppm;Unknown;;;;;;;;;;;;;;;;;;;;;;;;;;;;;;;;;;0,12;wt%;TITR;0,44;wt%;TITR;0,12;wt%;TITR;0,44;wt%;TITR;;;