SAMPLE ID;IGSN;EXPEDITION ID;REFERENCES;LATITUDE;LONGITUDE;LOC PREC;MIN ELEVATION;MAX ELEVATION;TECTONIC SETTING;MIN AGE;AGE;MAX AGE;METHOD;ANALYZED MATERIAL;ROCK TYPE;ROCK NAME;MINERAL;SIO2;SIO2 Units;SIO2 Method;TIO2;TIO2 Units;TIO2 Method;AL2O3;AL2O3 Units;AL2O3 Method;CR2O3;CR2O3 Units;CR2O3 Method;FE2O3;FE2O3 Units;FE2O3 Method;FE2O3T;FE2O3T Units;FE2O3T Method;FEO;FEO Units;FEO Method;FEOT;FEOT Units;FEOT Method;NIO;NIO Units;NIO Method;MNO;MNO Units;MNO Method;MGO;MGO Units;MGO Method;CAO;CAO Units;CAO Method;SRO;SRO Units;SRO Method;NA2O;NA2O Units;NA2O Method;K2O;K2O Units;K2O Method;P2O5;P2O5 Units;P2O5 Method;BAO;BAO Units;BAO Method;LOI;LOI Units;LOI Method;H2O;H2O Units;H2O Method;H2O_M;H2O_M Units;H2O_M Method;H2O_P;H2O_P Units;H2O_P Method;SO3;SO3 Units;SO3 Method;COO;COO Units;COO Method;MN;MN Units;MN Method;NI;NI Units;NI Method;CO;CO Units;CO Method;CU;CU Units;CU Method;CD;CD Units;CD Method;ZN;ZN Units;ZN Method;AS;AS Units;AS Method;AG;AG Units;AG Method;S;S Units;S Method;ZRO2;ZRO2 Units;ZRO2 Method;AL;AL Units;AL Method;CA;CA Units;CA Method;SR87_SR86;SR87_SR86 Units;SR87_SR86 Method;SR87_SR86_INI;SR87_SR86_INI Units;SR87_SR86_INI Method;RB87_SR86;RB87_SR86 Units;RB87_SR86 Method;ND143_ND144;ND143_ND144 Units;ND143_ND144 Method;ND143_ND144_INI;ND143_ND144_INI Units;ND143_ND144_INI Method;SM147_ND144;SM147_ND144 Units;SM147_ND144 Method;E_ND;E_ND Units;E_ND Method;E_ND_INI;E_ND_INI Units;E_ND_INI Method;PB204_PB206;PB204_PB206 Units;PB204_PB206 Method;PB206_PB204;PB206_PB204 Units;PB206_PB204 Method;PB206_PB204_INI;PB206_PB204_INI Units;PB206_PB204_INI Method;PB207_PB204;PB207_PB204 Units;PB207_PB204 Method;PB207_PB204_INI;PB207_PB204_INI Units;PB207_PB204_INI Method;PB207_PB206;PB207_PB206 Units;PB207_PB206 Method;PB208_PB204;PB208_PB204 Units;PB208_PB204 Method;PB208_PB204_INI;PB208_PB204_INI Units;PB208_PB204_INI Method;PB208_PB206;PB208_PB206 Units;PB208_PB206 Method;HF176_HF177;HF176_HF177 Units;HF176_HF177 Method;RE187_OS188;RE187_OS188 Units;RE187_OS188 Method;OS187_OS188;OS187_OS188 Units;OS187_OS188 Method;OS187_OS188_INI;OS187_OS188_INI Units;OS187_OS188_INI Method;G_OS;G_OS Units;G_OS Method;G_OS_INI;G_OS_INI Units;G_OS_INI Method;ND143_ND144_INI;ND143_ND144_INI Units;ND143_ND144_INI Method;PB206_PB204_INI;PB206_PB204_INI Units;PB206_PB204_INI Method;PB207_PB204_INI;PB207_PB204_INI Units;PB207_PB204_INI Method;PB208_PB204_INI;PB208_PB204_INI Units;PB208_PB204_INI Method;SR87_SR86_INI;SR87_SR86_INI Units;SR87_SR86_INI Method;HE;HE Units;HE Method;HE3;HE3 Units;HE3 Method;HE3_HE4_R_RA;HE3_HE4_R_RA Units;HE3_HE4_R_RA Method;AR36;AR36 Units;AR36 Method;AR40;AR40 Units;AR40 Method;AR40_AR36;AR40_AR36 Units;AR40_AR36 Method;NE20;NE20 Units;NE20 Method;NE20_NE22;NE20_NE22 Units;NE20_NE22 Method;NE21_NE22;NE21_NE22 Units;NE21_NE22 Method;LA;LA Units;LA Method;CE;CE Units;CE Method;PR;PR Units;PR Method;ND;ND Units;ND Method;SM;SM Units;SM Method;EU;EU Units;EU Method;GD;GD Units;GD Method;TB;TB Units;TB Method;DY;DY Units;DY Method;HO;HO Units;HO Method;ER;ER Units;ER Method;TM;TM Units;TM Method;YB;YB Units;YB Method;LU;LU Units;LU Method;CO2;CO2 Units;CO2 Method;F;F Units;F Method;CL;CL Units;CL Method;U238_PB204;U238_PB204 Units;U238_PB204 Method;TH230_TH232;TH230_TH232 Units;TH230_TH232 Method;RA226_ACTIVITY;RA226_ACTIVITY Units;RA226_ACTIVITY Method;PB210_RA226;PB210_RA226 Units;PB210_RA226 Method;PB210_ACTIVITY;PB210_ACTIVITY Units;PB210_ACTIVITY Method;AG;AG Units;AG Method;AL;AL Units;AL Method;AS;AS Units;AS Method;AU;AU Units;AU Method;B;B Units;B Method;BA;BA Units;BA Method;BE;BE Units;BE Method;BI;BI Units;BI Method;CA;CA Units;CA Method;CD;CD Units;CD Method;CO;CO Units;CO Method;CR;CR Units;CR Method;CS;CS Units;CS Method;CU;CU Units;CU Method;GA;GA Units;GA Method;GER;GER Units;GER Method;HF;HF Units;HF Method;INDIUM;INDIUM Units;INDIUM Method;IR;IR Units;IR Method;K;K Units;K Method;LI;LI Units;LI Method;MN;MN Units;MN Method;MO;MO Units;MO Method;NA;NA Units;NA Method;NB;NB Units;NB Method;NI;NI Units;NI Method;OS;OS Units;OS Method;P;P Units;P Method;PB;PB Units;PB Method;PD;PD Units;PD Method;PT;PT Units;PT Method;RB;RB Units;RB Method;RE;RE Units;RE Method;RH;RH Units;RH Method;RU;RU Units;RU Method;S;S Units;S Method;SB;SB Units;SB Method;SC;SC Units;SC Method;SN;SN Units;SN Method;SR;SR Units;SR Method;TA;TA Units;TA Method;TH;TH Units;TH Method;TI;TI Units;TI Method;TL;TL Units;TL Method;U;U Units;U Method;V;V Units;V Method;W;W Units;W Method;Y;Y Units;Y Method;ZN;ZN Units;ZN Method;ZR;ZR Units;ZR Method;DELTA_O18;DELTA_O18 Units;DELTA_O18 Method;DELTA_C13;DELTA_C13 Units;DELTA_C13 Method;DELTA_MO98;DELTA_MO98 Units;DELTA_MO98 Method;DELTA_ZN66;DELTA_ZN66 Units;DELTA_ZN66 Method;DELTA_ZN68;DELTA_ZN68 Units;DELTA_ZN68 Method;OS188;OS188 Units;OS188 Method;FE3P_FET;FE3P_FET Units;FE3P_FET Method;TI;TI Units;TI Method;AS;AS Units;AS Method;AS;AS Units;AS Method;GER;GER Units;GER Method;H2O_M;H2O_M Units;H2O_M Method;H2O_P;H2O_P Units;H2O_P Method;H2O_M;H2O_M Units;H2O_M Method;H2O_P;H2O_P Units;H2O_P Method;INDIUM;INDIUM Units;INDIUM Method
GROSCAMP-W-245406;;GROSSMAN-CAMP;GROSSMAN, 1991;40,2;-76,8722;0,001;;;CONTINENTAL_RIFT;;;;"AAS; COL; ICPMS; INAA; TITR; Unknown";WHOLE ROCK;IGNEOUS:VOLCANIC:MAFIC;DIABASE;;52,5;wt%;COL;0,77;wt%;COL;13,2;wt%;COL;;;;1,54;wt%;Unknown;;;;7,7;wt%;TITR;;;;;;;0,17;wt%;AAS;10,6;wt%;AAS;11,8;wt%;Unknown;;;;1,55;wt%;Unknown;0,37;wt%;AAS;0,09;wt%;COL;;;;;;;;;;0,13;wt%;TITR;0,33;wt%;TITR;;;;;;;;;;143;ppm;Unknown;50;ppm;Unknown;55;ppm;Unknown;;;;52;ppm;Unknown;;;;;;;;;;;;;;;;;;;;;;;;;;;;;;;;;;;;;;;;;;;;;;;;;;;;;;;;;;;;;;;;;;;;;;;;;;;;;;;;;;;;;;;;;;;;;;;;;;;;;;;;;;;;;;;;;;;;;;;;;;;;;;;;;;6,8;ppm;INAA;16;ppm;INAA;;;;6,7;ppm;INAA;2,33;ppm;INAA;0,71;ppm;INAA;;;;0,42;ppm;INAA;;;;;;;;;;;;;1,5;ppm;INAA;0,23;ppm;INAA;;;;;;;;;;;;;;;;;;;;;;;;;;;;;;;;;;;;;;;;105;ppm;Unknown;;;;;;;;;;;;;50;ppm;Unknown;710;ppm;Unknown;0,52;ppm;INAA;55;ppm;Unknown;;;;;;;1,4;ppm;INAA;;;;1;ppm;ICPMS;;;;;;;;;;;;;;;;;;;143;ppm;Unknown;;;;;;;;;;6,5;ppm;Unknown;23;ppm;Unknown;8;ppm;Unknown;;;;0,9;ppm;Unknown;;;;;;;;;;38;ppm;INAA;;;;147;ppm;Unknown;0,3;ppm;INAA;1,3;ppm;INAA;;;;;;;0,4;ppm;INAA;;;;;;;;;;52;ppm;Unknown;62;ppm;Unknown;;;;;;;;;;;;;;;;;;;;;;;;;;;;;;;;;;0,13;wt%;TITR;0,33;wt%;TITR;0,13;wt%;TITR;0,33;wt%;TITR;;;
GROSCAMP-W-245407;;GROSSMAN-CAMP;GROSSMAN, 1991;40,2;-76,8722;0,001;;;CONTINENTAL_RIFT;;;;"AAS; COL; ICPMS; INAA; TITR; Unknown";WHOLE ROCK;IGNEOUS:VOLCANIC:MAFIC;DIABASE;;52,2;wt%;COL;0,71;wt%;COL;13,6;wt%;COL;;;;1,37;wt%;Unknown;;;;7,3;wt%;TITR;;;;;;;0,16;wt%;AAS;10,3;wt%;AAS;12,1;wt%;Unknown;;;;1,62;wt%;Unknown;0,37;wt%;AAS;0,09;wt%;COL;;;;;;;;;;0,17;wt%;TITR;0,27;wt%;TITR;;;;;;;;;;135;ppm;Unknown;47;ppm;Unknown;47;ppm;Unknown;;;;55;ppm;Unknown;;;;;;;;;;;;;;;;;;;;;;;;;;;;;;;;;;;;;;;;;;;;;;;;;;;;;;;;;;;;;;;;;;;;;;;;;;;;;;;;;;;;;;;;;;;;;;;;;;;;;;;;;;;;;;;;;;;;;;;;;;;;;;;;;;6,3;ppm;INAA;14;ppm;INAA;;;;7,9;ppm;INAA;2,13;ppm;INAA;0,7;ppm;INAA;;;;0,4;ppm;INAA;;;;;;;;;;;;;1,5;ppm;INAA;0,2;ppm;INAA;0,01;ppm;TITR;;;;;;;;;;;;;;;;;;;;;;;;;;;;;;;;;;;;;99;ppm;Unknown;;;;;;;;;;;;;47;ppm;Unknown;660;ppm;Unknown;0,58;ppm;INAA;47;ppm;Unknown;;;;;;;1,4;ppm;INAA;;;;1,1;ppm;ICPMS;;;;;;;;;;;;;;;;;;;135;ppm;Unknown;;;;;;;;;;6;ppm;Unknown;26;ppm;Unknown;11;ppm;Unknown;;;;0,9;ppm;Unknown;;;;;;;;;;37;ppm;INAA;;;;162;ppm;Unknown;0,32;ppm;INAA;1,1;ppm;INAA;;;;;;;0,34;ppm;INAA;;;;;;;;;;55;ppm;Unknown;61;ppm;Unknown;;;;;;;;;;;;;;;;;;;;;;;;;;;;;;;;;;0,17;wt%;TITR;0,27;wt%;TITR;0,17;wt%;TITR;0,27;wt%;TITR;;;
GROSCAMP-W-245408;;GROSSMAN-CAMP;GROSSMAN, 1991;40,2;-76,8722;0,001;;;CONTINENTAL_RIFT;;;;"AAS; COL; ICPMS; INAA; TITR; Unknown";WHOLE ROCK;IGNEOUS:VOLCANIC:MAFIC;DIABASE;;52,3;wt%;COL;0,72;wt%;COL;12,2;wt%;COL;;;;1,55;wt%;Unknown;;;;7,5;wt%;TITR;;;;;;;0,18;wt%;AAS;11,3;wt%;AAS;12;wt%;Unknown;;;;1,52;wt%;Unknown;0,32;wt%;AAS;0,07;wt%;COL;;;;;;;;;;0,15;wt%;TITR;0,42;wt%;TITR;;;;;;;;;;156;ppm;Unknown;50;ppm;Unknown;63;ppm;Unknown;;;;63;ppm;Unknown;;;;;;;;;;;;;;;;;;;;;;;;;;;;;;;;;;;;;;;;;;;;;;;;;;;;;;;;;;;;;;;;;;;;;;;;;;;;;;;;;;;;;;;;;;;;;;;;;;;;;;;;;;;;;;;;;;;;;;;;;;;;;;;;;;6,1;ppm;INAA;14;ppm;INAA;;;;7,8;ppm;INAA;2,1;ppm;INAA;0,67;ppm;INAA;;;;0,36;ppm;INAA;;;;;;;;;;;;;1,4;ppm;INAA;0,22;ppm;INAA;;;;;;;;;;;;;;;;;;;;;;;;;;;;;;;;;;;;;;;;106;ppm;Unknown;;;;;;;;;;;;;50;ppm;Unknown;690;ppm;Unknown;0,48;ppm;INAA;63;ppm;Unknown;;;;;;;1,5;ppm;INAA;;;;1;ppm;ICPMS;;;;;;;;;;;;;;;;;;;156;ppm;Unknown;;;;;;;;;;3,5;ppm;Unknown;22;ppm;Unknown;11;ppm;Unknown;;;;0,9;ppm;Unknown;;;;;;;0,16;ppm;INAA;38;ppm;INAA;;;;143;ppm;Unknown;0,26;ppm;INAA;1,3;ppm;INAA;;;;;;;;;;;;;;;;;;;63;ppm;Unknown;52;ppm;Unknown;;;;;;;;;;;;;;;;;;;;;;;;;;;;;;;;;;0,15;wt%;TITR;0,42;wt%;TITR;0,15;wt%;TITR;0,42;wt%;TITR;;;
GROSCAMP-W-245409;;GROSSMAN-CAMP;GROSSMAN, 1991;40,2;-76,8722;0,001;;;CONTINENTAL_RIFT;;;;"AAS; COL; ICPMS; INAA; TITR; Unknown";WHOLE ROCK;IGNEOUS:VOLCANIC:MAFIC;DIABASE;;52,5;wt%;COL;0,83;wt%;COL;11,8;wt%;COL;;;;1,54;wt%;Unknown;;;;8,2;wt%;TITR;;;;;;;0,18;wt%;AAS;11,6;wt%;AAS;11;wt%;Unknown;;;;1,58;wt%;Unknown;0,39;wt%;AAS;0,1;wt%;COL;;;;;;;;;;0,12;wt%;TITR;0,49;wt%;TITR;;;;;;;;;;151;ppm;Unknown;52;ppm;Unknown;68;ppm;Unknown;;;;54;ppm;Unknown;;;;;;;;;;;;;;;;;;;;;;;;;;;;;;;;;;;;;;;;;;;;;;;;;;;;;;;;;;;;;;;;;;;;;;;;;;;;;;;;;;;;;;;;;;;;;;;;;;;;;;;;;;;;;;;;;;;;;;;;;;;;;;;;;;7,3;ppm;INAA;16;ppm;INAA;;;;7,9;ppm;INAA;2,39;ppm;INAA;0,77;ppm;INAA;;;;0,44;ppm;INAA;;;;;;;;;;;;;1,6;ppm;INAA;0,22;ppm;INAA;;;;;;;;;;;;;;;;;;;;;;;;;;;;;;;;;;;;;;;;107;ppm;Unknown;;;;;;;;;;;;;52;ppm;Unknown;770;ppm;Unknown;0,52;ppm;INAA;68;ppm;Unknown;;;;;;;1,6;ppm;INAA;;;;1;ppm;ICPMS;;;;;;;;;;;;;;;;;;;151;ppm;Unknown;;;;;;;;;;6,2;ppm;Unknown;21;ppm;Unknown;16;ppm;Unknown;;;;0,8;ppm;Unknown;;;;;;;0,18;ppm;INAA;38;ppm;INAA;;;;145;ppm;Unknown;0,35;ppm;INAA;1,4;ppm;INAA;;;;;;;0,94;ppm;INAA;;;;;;;;;;54;ppm;Unknown;69;ppm;Unknown;;;;;;;;;;;;;;;;;;;;;;;;;;;;;;;;;;0,12;wt%;TITR;0,49;wt%;TITR;0,12;wt%;TITR;0,49;wt%;TITR;;;
GROSCAMP-W-245410;;GROSSMAN-CAMP;GROSSMAN, 1991;40,2;-76,8722;0,001;;;CONTINENTAL_RIFT;;;;"AAS; COL; INAA; TITR; Unknown";WHOLE ROCK;IGNEOUS:VOLCANIC:MAFIC;DIABASE;;52,3;wt%;COL;1,12;wt%;COL;13,8;wt%;COL;;;;1,83;wt%;Unknown;;;;8,8;wt%;TITR;;;;;;;0,17;wt%;AAS;8,06;wt%;AAS;11,1;wt%;Unknown;;;;2,04;wt%;Unknown;0,57;wt%;AAS;0,14;wt%;COL;;;;;;;;;;0,1;wt%;TITR;0,66;wt%;TITR;;;;;;;;;;103;ppm;Unknown;48;ppm;Unknown;92;ppm;Unknown;;;;64;ppm;Unknown;;;;;;;;;;;;;;;;;;;;;;;;;;;;;;;;;;;;;;;;;;;;;;;;;;;;;;;;;;;;;;;;;;;;;;;;;;;;;;;;;;;;;;;;;;;;;;;;;;;;;;;;;;;;;;;;;;;;;;;;;;;;;;;;;;11;ppm;INAA;21;ppm;INAA;;;;;;;3,4;ppm;INAA;1;ppm;INAA;;;;0,61;ppm;INAA;;;;;;;;;;;;;2,1;ppm;INAA;0,31;ppm;INAA;0,02;ppm;TITR;;;;;;;;;;;;;;;;;;;;;;;;;;;;;;;;;;;;;142;ppm;Unknown;;;;;;;;;;;;;48;ppm;Unknown;370;ppm;Unknown;1,1;ppm;INAA;92;ppm;Unknown;;;;;;;2,5;ppm;INAA;;;;;;;;;;;;;;;;;;;;;;;;;103;ppm;Unknown;;;;;;;;;;12;ppm;Unknown;15;ppm;Unknown;19;ppm;Unknown;;;;0,9;ppm;Unknown;;;;;;;0,17;ppm;INAA;37;ppm;INAA;;;;169;ppm;Unknown;0,52;ppm;INAA;2;ppm;INAA;;;;;;;0,47;ppm;INAA;;;;;;;;;;64;ppm;Unknown;90;ppm;Unknown;;;;;;;;;;;;;;;;;;;;;;;;;;;;;;;;;;0,1;wt%;TITR;0,66;wt%;TITR;0,1;wt%;TITR;0,66;wt%;TITR;;;
GROSCAMP-W-245411;;GROSSMAN-CAMP;GROSSMAN, 1991;40,2;-76,8722;0,001;;;CONTINENTAL_RIFT;;;;"AAS; COL; INAA; TITR; Unknown";WHOLE ROCK;IGNEOUS:VOLCANIC:MAFIC;DIABASE;;52,4;wt%;COL;1,14;wt%;COL;14;wt%;COL;;;;2,06;wt%;Unknown;;;;8,7;wt%;TITR;;;;;;;0,17;wt%;AAS;8,01;wt%;AAS;11,1;wt%;Unknown;;;;1,99;wt%;Unknown;0,57;wt%;AAS;0,14;wt%;COL;;;;;;;;;;0,1;wt%;TITR;0,36;wt%;TITR;;;;;;;;;;105;ppm;Unknown;49;ppm;Unknown;108;ppm;Unknown;;;;73;ppm;Unknown;;;;;;;;;;;;;;;;;;;;;;;;;;;;;;;;;;;;;;;;;;;;;;;;;;;;;;;;;;;;;;;;;;;;;;;;;;;;;;;;;;;;;;;;;;;;;;;;;;;;;;;;;;;;;;;;;;;;;;;;;;;;;;;;;;10;ppm;INAA;22;ppm;INAA;;;;13;ppm;INAA;3,3;ppm;INAA;1;ppm;INAA;;;;0,58;ppm;INAA;;;;;;;;;;;;;2;ppm;INAA;0,35;ppm;INAA;0,01;ppm;TITR;;;;;;;;;;;;;;;;;;;;;;;;;;;;;;;;;;;;;146;ppm;Unknown;;;;;;;;;;;;;49;ppm;Unknown;420;ppm;Unknown;0,87;ppm;INAA;108;ppm;Unknown;;;;;;;2,3;ppm;INAA;;;;;;;;;;;;;;;;;;;;;;;;;105;ppm;Unknown;;;;;;;;;;11;ppm;Unknown;15;ppm;Unknown;23;ppm;Unknown;;;;0,7;ppm;Unknown;;;;;;;0,2;ppm;INAA;38;ppm;INAA;;;;181;ppm;Unknown;0,5;ppm;INAA;2;ppm;INAA;;;;;;;0,5;ppm;INAA;;;;;;;;;;73;ppm;Unknown;96;ppm;Unknown;;;;;;;;;;;;;;;;;;;;;;;;;;;;;;;;;;0,1;wt%;TITR;0,36;wt%;TITR;0,1;wt%;TITR;0,36;wt%;TITR;;;
GROSCAMP-W-245412;;GROSSMAN-CAMP;GROSSMAN, 1991;40,2;-76,8722;0,001;;;CONTINENTAL_RIFT;;;;"AAS; COL; ICPMS; INAA; TITR; Unknown";WHOLE ROCK;IGNEOUS:VOLCANIC:MAFIC;DIABASE;;52,2;wt%;COL;1,11;wt%;COL;13,6;wt%;COL;;;;1,6;wt%;Unknown;;;;9;wt%;TITR;;;;;;;0,18;wt%;AAS;8,24;wt%;AAS;11,1;wt%;Unknown;;;;1,94;wt%;Unknown;0,59;wt%;AAS;0,13;wt%;COL;;;;;;;;;;0,05;wt%;TITR;0,71;wt%;TITR;;;;;;;;;;109;ppm;Unknown;47;ppm;Unknown;88;ppm;Unknown;;;;76;ppm;Unknown;;;;;;;;;;;;;;;;;;;;;;;;;;;;;;;;;;;;;;;;;;;;;;;;;;;;;;;;;;;;;;;;;;;;;;;;;;;;;;;;;;;;;;;;;;;;;;;;;;;;;;;;;;;;;;;;;;;;;;;;;;;;;;;;;;11;ppm;INAA;23;ppm;INAA;;;;12;ppm;INAA;3,4;ppm;INAA;1;ppm;INAA;;;;0,57;ppm;INAA;;;;;;;;;;;;;1,9;ppm;INAA;0,29;ppm;INAA;0,02;ppm;TITR;;;;;;;;;;;;;;;;;;;;;;;;;;;;;;;7,9;ppm;INAA;;;;158;ppm;Unknown;;;;;;;;;;;;;47;ppm;Unknown;390;ppm;Unknown;1,2;ppm;INAA;88;ppm;Unknown;;;;;;;2,4;ppm;INAA;;;;0,5;ppm;ICPMS;;;;;;;;;;;;;;;;;;;109;ppm;Unknown;;;;;;;;;;11;ppm;Unknown;15;ppm;Unknown;22;ppm;Unknown;;;;0,7;ppm;Unknown;;;;;;;0,25;ppm;INAA;36;ppm;INAA;;;;174;ppm;Unknown;0,52;ppm;INAA;2,1;ppm;INAA;;;;;;;;;;;;;;;;;;;76;ppm;Unknown;87;ppm;Unknown;;;;;;;;;;;;;;;;;;;;;;;;;;;;;;;;;;0,05;wt%;TITR;0,71;wt%;TITR;0,05;wt%;TITR;0,71;wt%;TITR;;;
GROSCAMP-W-245413;;GROSSMAN-CAMP;GROSSMAN, 1991;40,2;-76,8722;0,001;;;CONTINENTAL_RIFT;;;;"AAS; COL; ICPMS; INAA; TITR; Unknown";WHOLE ROCK;IGNEOUS:VOLCANIC:MAFIC;DIABASE;;52,7;wt%;COL;0,84;wt%;COL;10,7;wt%;COL;;;;2,82;wt%;Unknown;;;;8,3;wt%;TITR;;;;;;;0,2;wt%;AAS;13,6;wt%;AAS;9,41;wt%;Unknown;;;;1,46;wt%;Unknown;0,34;wt%;AAS;0,08;wt%;COL;;;;;;;;;;0,12;wt%;TITR;0,59;wt%;TITR;;;;;;;;;;194;ppm;Unknown;61;ppm;Unknown;81;ppm;Unknown;;;;65;ppm;Unknown;;;;;;;;;;;;;;;;;;;;;;;;;;;;;;;;;;;;;;;;;;;;;;;;;;;;;;;;;;;;;;;;;;;;;;;;;;;;;;;;;;;;;;;;;;;;;;;;;;;;;;;;;;;;;;;;;;;;;;;;;;;;;;;;;;6,1;ppm;INAA;13;ppm;INAA;;;;6,2;ppm;INAA;2,17;ppm;INAA;0,7;ppm;INAA;;;;0,37;ppm;INAA;;;;;;;;;;;;;1,6;ppm;INAA;0,22;ppm;INAA;0,01;ppm;TITR;;;;;;;;;;;;;;;;;;;;;;;;;;;;;;;;;;;;;92;ppm;Unknown;;;;;;;;;;;;;61;ppm;Unknown;740;ppm;Unknown;0,41;ppm;INAA;81;ppm;Unknown;;;;;;;1,4;ppm;INAA;;;;0,8;ppm;ICPMS;;;;;;;;;;;;;;;;;;;194;ppm;Unknown;;;;;;;;;;12;ppm;Unknown;15;ppm;Unknown;17;ppm;Unknown;;;;0,8;ppm;Unknown;;;;;;;;;;37;ppm;INAA;;;;142;ppm;Unknown;0,37;ppm;INAA;1,1;ppm;INAA;;;;;;;;;;;;;;;;;;;65;ppm;Unknown;66;ppm;Unknown;;;;;;;;;;;;;;;;;;;;;;;;;;;;;;;;;;0,12;wt%;TITR;0,59;wt%;TITR;0,12;wt%;TITR;0,59;wt%;TITR;;;
GROSCAMP-W-245414;;GROSSMAN-CAMP;GROSSMAN, 1991;40,2;-76,8722;0,001;;;CONTINENTAL_RIFT;;;;"AAS; COL; ICPMS; INAA; TITR; Unknown";WHOLE ROCK;IGNEOUS:VOLCANIC:MAFIC;DIABASE;;52,2;wt%;COL;0,82;wt%;COL;11,2;wt%;COL;;;;1,93;wt%;Unknown;;;;8,6;wt%;TITR;;;;;;;0,19;wt%;AAS;12,6;wt%;AAS;10,4;wt%;Unknown;;;;1,52;wt%;Unknown;0,4;wt%;AAS;0,1;wt%;COL;;;;;;;;;;0,04;wt%;TITR;0,62;wt%;TITR;;;;;;;;;;199;ppm;Unknown;60;ppm;Unknown;58;ppm;Unknown;;;;61;ppm;Unknown;;;;;;;;;;;;;;;;;;;;;;;;;;;;;;;;;;;;;;;;;;;;;;;;;;;;;;;;;;;;;;;;;;;;;;;;;;;;;;;;;;;;;;;;;;;;;;;;;;;;;;;;;;;;;;;;;;;;;;;;;;;;;;;;;;7,6;ppm;INAA;16;ppm;INAA;;;;9,2;ppm;INAA;2,58;ppm;INAA;0,78;ppm;INAA;;;;0,44;ppm;INAA;;;;;;;;;;;;;1,6;ppm;INAA;0,25;ppm;INAA;0,02;ppm;TITR;;;;;;;;;;;;;;;;;;;;;;;;;;;;;;;;;;;;;120;ppm;Unknown;;;;;;;;;;;;;60;ppm;Unknown;780;ppm;Unknown;0,87;ppm;INAA;58;ppm;Unknown;;;;;;;1,9;ppm;INAA;;;;1,2;ppm;ICPMS;;;;;;;;;;;;;;;;;;;199;ppm;Unknown;;;;;;;;;;8,8;ppm;Unknown;20;ppm;Unknown;17;ppm;Unknown;;;;0,9;ppm;Unknown;;;;;;;;;;38;ppm;INAA;;;;142;ppm;Unknown;0,41;ppm;INAA;1,5;ppm;INAA;;;;;;;;;;;;;;;;;;;61;ppm;Unknown;75;ppm;Unknown;;;;;;;;;;;;;;;;;;;;;;;;;;;;;;;;;;0,04;wt%;TITR;0,62;wt%;TITR;0,04;wt%;TITR;0,62;wt%;TITR;;;
GROSCAMP-W-245415;;GROSSMAN-CAMP;GROSSMAN, 1991;40,2;-76,8722;0,001;;;CONTINENTAL_RIFT;;;;"AAS; COL; ICPMS; INAA; TITR; Unknown";WHOLE ROCK;IGNEOUS:VOLCANIC:MAFIC;DIABASE;;52,3;wt%;COL;0,84;wt%;COL;11,3;wt%;COL;;;;1,87;wt%;Unknown;;;;8,6;wt%;TITR;;;;;;;0,19;wt%;AAS;12,2;wt%;AAS;10,5;wt%;Unknown;;;;1,59;wt%;Unknown;0,39;wt%;AAS;0,1;wt%;COL;;;;;;;;;;0,07;wt%;TITR;0,48;wt%;TITR;;;;;;;;;;198;ppm;Unknown;58;ppm;Unknown;77;ppm;Unknown;;;;71;ppm;Unknown;;;;;;;;;;;;;;;;;;;;;;;;;;;;;;;;;;;;;;;;;;;;;;;;;;;;;;;;;;;;;;;;;;;;;;;;;;;;;;;;;;;;;;;;;;;;;;;;;;;;;;;;;;;;;;;;;;;;;;;;;;;;;;;;;;7,8;ppm;INAA;18;ppm;INAA;;;;8,9;ppm;INAA;2,59;ppm;INAA;0,79;ppm;INAA;;;;0,43;ppm;INAA;;;;;;;;;;;;;1,7;ppm;INAA;0,26;ppm;INAA;0,01;ppm;TITR;;;;;;;;;;;;;;;;;;;;;;;;;;;;;;;;;;;;;111;ppm;Unknown;;;;;;;;;;;;;58;ppm;Unknown;770;ppm;Unknown;0,78;ppm;INAA;77;ppm;Unknown;;;;;;;1,9;ppm;INAA;;;;1,1;ppm;ICPMS;;;;;;;;;;;;;;;;;;;198;ppm;Unknown;;;;;;;;;;8,7;ppm;Unknown;18;ppm;Unknown;15;ppm;Unknown;;;;0,8;ppm;Unknown;;;;;;;;;;38;ppm;INAA;;;;149;ppm;Unknown;0,36;ppm;INAA;1,5;ppm;INAA;;;;;;;0,38;ppm;INAA;;;;;;;;;;71;ppm;Unknown;68;ppm;Unknown;;;;;;;;;;;;;;;;;;;;;;;;;;;;;;;;;;0,07;wt%;TITR;0,48;wt%;TITR;0,07;wt%;TITR;0,48;wt%;TITR;;;
GROSCAMP-W-245416;;GROSSMAN-CAMP;GROSSMAN, 1991;40,2;-76,8722;0,001;;;CONTINENTAL_RIFT;;;;"AAS; COL; INAA; TITR; Unknown";WHOLE ROCK;IGNEOUS:VOLCANIC:MAFIC;DIABASE;;53,3;wt%;COL;1,49;wt%;COL;16,5;wt%;COL;;;;2,82;wt%;Unknown;;;;6,7;wt%;TITR;;;;;;;0,13;wt%;AAS;3,83;wt%;AAS;10,2;wt%;Unknown;;;;3,4;wt%;Unknown;0,65;wt%;AAS;0,2;wt%;COL;;;;;;;;;;0,34;wt%;TITR;0,96;wt%;TITR;;;;;;;;;;27;ppm;Unknown;33;ppm;Unknown;70;ppm;Unknown;;;;62;ppm;Unknown;;;;;;;;;;;;;;;;;;;;;;;;;;;;;;;;;;;;;;;;;;;;;;;;;;;;;;;;;;;;;;;;;;;;;;;;;;;;;;;;;;;;;;;;;;;;;;;;;;;;;;;;;;;;;;;;;;;;;;;;;;;;;;;;;;14,7;ppm;INAA;31;ppm;INAA;;;;17;ppm;INAA;4,6;ppm;INAA;1,4;ppm;INAA;;;;0,79;ppm;INAA;;;;;;;;;;;;;2,8;ppm;INAA;0,42;ppm;INAA;0,17;ppm;TITR;;;;;;;;;;;;;;;;;;;;;;;;;;;;;;;;;;;;;195;ppm;Unknown;;;;;;;;;;;;;33;ppm;Unknown;9,9;ppm;Unknown;0,56;ppm;INAA;70;ppm;Unknown;;;;;;;3,4;ppm;INAA;;;;;;;;;;;;;;;;;;;;;;;;;27;ppm;Unknown;;;;;;;;;;13;ppm;Unknown;6,7;ppm;Unknown;19;ppm;Unknown;;;;;;;;;;;;;0,37;ppm;INAA;29,9;ppm;INAA;;;;231;ppm;Unknown;0,74;ppm;INAA;3,2;ppm;INAA;;;;;;;0,65;ppm;INAA;;;;;;;;;;62;ppm;Unknown;129;ppm;Unknown;;;;;;;;;;;;;;;;;;;;;;;;;;;;;;;;;;0,34;wt%;TITR;0,96;wt%;TITR;0,34;wt%;TITR;0,96;wt%;TITR;;;
GROSCAMP-W-245417;;GROSSMAN-CAMP;GROSSMAN, 1991;40,2;-76,8722;0,001;;;CONTINENTAL_RIFT;;;;"AAS; COL; INAA; TITR; Unknown";WHOLE ROCK;IGNEOUS:VOLCANIC:MAFIC;DIABASE;;53,1;wt%;COL;1,25;wt%;COL;14,9;wt%;COL;;;;1,48;wt%;Unknown;;;;8,6;wt%;TITR;;;;;;;0,15;wt%;AAS;6,01;wt%;AAS;10,8;wt%;Unknown;;;;2,57;wt%;Unknown;0,63;wt%;AAS;0,16;wt%;COL;;;;;;;;;;0,16;wt%;TITR;0,74;wt%;TITR;;;;;;;;;;60;ppm;Unknown;41;ppm;Unknown;67;ppm;Unknown;;;;58;ppm;Unknown;2,1;ppm;INAA;;;;;;;;;;;;;;;;;;;;;;;;;;;;;;;;;;;;;;;;;;;;;;;;;;;;;;;;;;;;;;;;;;;;;;;;;;;;;;;;;;;;;;;;;;;;;;;;;;;;;;;;;;;;;;;;;;;;;;;;;;;;;;;14;ppm;INAA;28;ppm;INAA;;;;14;ppm;INAA;4,1;ppm;INAA;1,2;ppm;INAA;;;;0,8;ppm;INAA;;;;;;;;;;;;;2,5;ppm;INAA;0,36;ppm;INAA;0,02;ppm;TITR;;;;;;;;;;;;;;;;;;;;;;;;;;;;2,1;ppm;INAA;;;;;;;194;ppm;Unknown;;;;;;;;;;;;;41;ppm;Unknown;94;ppm;Unknown;0,66;ppm;INAA;67;ppm;Unknown;;;;;;;3;ppm;INAA;;;;;;;;;;;;;;;;;;;;;;;;;60;ppm;Unknown;;;;;;;;;;12;ppm;Unknown;10;ppm;Unknown;15;ppm;Unknown;;;;0,5;ppm;Unknown;;;;;;;0,22;ppm;INAA;34;ppm;INAA;;;;203;ppm;Unknown;0,61;ppm;INAA;2,8;ppm;INAA;;;;;;;0,57;ppm;INAA;;;;;;;;;;58;ppm;Unknown;113;ppm;Unknown;;;;;;;;;;;;;;;;;;;;;;;;;2,1;ppm;INAA;2,1;ppm;INAA;;;;0,16;wt%;TITR;0,74;wt%;TITR;0,16;wt%;TITR;0,74;wt%;TITR;;;