SAMPLE ID;IGSN;EXPEDITION ID;REFERENCES;LATITUDE;LONGITUDE;LOC PREC;MIN ELEVATION;MAX ELEVATION;TECTONIC SETTING;MIN AGE;AGE;MAX AGE;METHOD;ANALYZED MATERIAL;ROCK TYPE;ROCK NAME;MINERAL;SIO2;SIO2 Units;SIO2 Method;TIO2;TIO2 Units;TIO2 Method;AL2O3;AL2O3 Units;AL2O3 Method;CR2O3;CR2O3 Units;CR2O3 Method;FE2O3;FE2O3 Units;FE2O3 Method;FE2O3T;FE2O3T Units;FE2O3T Method;FEO;FEO Units;FEO Method;FEOT;FEOT Units;FEOT Method;NIO;NIO Units;NIO Method;MNO;MNO Units;MNO Method;MGO;MGO Units;MGO Method;CAO;CAO Units;CAO Method;SRO;SRO Units;SRO Method;NA2O;NA2O Units;NA2O Method;K2O;K2O Units;K2O Method;P2O5;P2O5 Units;P2O5 Method;BAO;BAO Units;BAO Method;LOI;LOI Units;LOI Method;H2O;H2O Units;H2O Method;H2O_M;H2O_M Units;H2O_M Method;H2O_P;H2O_P Units;H2O_P Method;SO3;SO3 Units;SO3 Method;COO;COO Units;COO Method;MN;MN Units;MN Method;NI;NI Units;NI Method;CO;CO Units;CO Method;CU;CU Units;CU Method;CD;CD Units;CD Method;ZN;ZN Units;ZN Method;AS;AS Units;AS Method;AG;AG Units;AG Method;S;S Units;S Method;ZRO2;ZRO2 Units;ZRO2 Method;AL;AL Units;AL Method;CA;CA Units;CA Method;SR87_SR86;SR87_SR86 Units;SR87_SR86 Method;SR87_SR86_INI;SR87_SR86_INI Units;SR87_SR86_INI Method;RB87_SR86;RB87_SR86 Units;RB87_SR86 Method;ND143_ND144;ND143_ND144 Units;ND143_ND144 Method;ND143_ND144_INI;ND143_ND144_INI Units;ND143_ND144_INI Method;SM147_ND144;SM147_ND144 Units;SM147_ND144 Method;E_ND;E_ND Units;E_ND Method;E_ND_INI;E_ND_INI Units;E_ND_INI Method;PB204_PB206;PB204_PB206 Units;PB204_PB206 Method;PB206_PB204;PB206_PB204 Units;PB206_PB204 Method;PB206_PB204_INI;PB206_PB204_INI Units;PB206_PB204_INI Method;PB207_PB204;PB207_PB204 Units;PB207_PB204 Method;PB207_PB204_INI;PB207_PB204_INI Units;PB207_PB204_INI Method;PB207_PB206;PB207_PB206 Units;PB207_PB206 Method;PB208_PB204;PB208_PB204 Units;PB208_PB204 Method;PB208_PB204_INI;PB208_PB204_INI Units;PB208_PB204_INI Method;PB208_PB206;PB208_PB206 Units;PB208_PB206 Method;HF176_HF177;HF176_HF177 Units;HF176_HF177 Method;RE187_OS188;RE187_OS188 Units;RE187_OS188 Method;OS187_OS188;OS187_OS188 Units;OS187_OS188 Method;OS187_OS188_INI;OS187_OS188_INI Units;OS187_OS188_INI Method;G_OS;G_OS Units;G_OS Method;G_OS_INI;G_OS_INI Units;G_OS_INI Method;ND143_ND144_INI;ND143_ND144_INI Units;ND143_ND144_INI Method;PB206_PB204_INI;PB206_PB204_INI Units;PB206_PB204_INI Method;PB207_PB204_INI;PB207_PB204_INI Units;PB207_PB204_INI Method;PB208_PB204_INI;PB208_PB204_INI Units;PB208_PB204_INI Method;SR87_SR86_INI;SR87_SR86_INI Units;SR87_SR86_INI Method;HE;HE Units;HE Method;HE3;HE3 Units;HE3 Method;HE3_HE4_R_RA;HE3_HE4_R_RA Units;HE3_HE4_R_RA Method;AR36;AR36 Units;AR36 Method;AR40;AR40 Units;AR40 Method;AR40_AR36;AR40_AR36 Units;AR40_AR36 Method;NE20;NE20 Units;NE20 Method;NE20_NE22;NE20_NE22 Units;NE20_NE22 Method;NE21_NE22;NE21_NE22 Units;NE21_NE22 Method;LA;LA Units;LA Method;CE;CE Units;CE Method;PR;PR Units;PR Method;ND;ND Units;ND Method;SM;SM Units;SM Method;EU;EU Units;EU Method;GD;GD Units;GD Method;TB;TB Units;TB Method;DY;DY Units;DY Method;HO;HO Units;HO Method;ER;ER Units;ER Method;TM;TM Units;TM Method;YB;YB Units;YB Method;LU;LU Units;LU Method;CO2;CO2 Units;CO2 Method;F;F Units;F Method;CL;CL Units;CL Method;U238_PB204;U238_PB204 Units;U238_PB204 Method;TH230_TH232;TH230_TH232 Units;TH230_TH232 Method;RA226_ACTIVITY;RA226_ACTIVITY Units;RA226_ACTIVITY Method;PB210_RA226;PB210_RA226 Units;PB210_RA226 Method;PB210_ACTIVITY;PB210_ACTIVITY Units;PB210_ACTIVITY Method;AG;AG Units;AG Method;AL;AL Units;AL Method;AS;AS Units;AS Method;AU;AU Units;AU Method;B;B Units;B Method;BA;BA Units;BA Method;BE;BE Units;BE Method;BI;BI Units;BI Method;CA;CA Units;CA Method;CD;CD Units;CD Method;CO;CO Units;CO Method;CR;CR Units;CR Method;CS;CS Units;CS Method;CU;CU Units;CU Method;GA;GA Units;GA Method;GER;GER Units;GER Method;HF;HF Units;HF Method;INDIUM;INDIUM Units;INDIUM Method;IR;IR Units;IR Method;K;K Units;K Method;LI;LI Units;LI Method;MN;MN Units;MN Method;MO;MO Units;MO Method;NA;NA Units;NA Method;NB;NB Units;NB Method;NI;NI Units;NI Method;OS;OS Units;OS Method;P;P Units;P Method;PB;PB Units;PB Method;PD;PD Units;PD Method;PT;PT Units;PT Method;RB;RB Units;RB Method;RE;RE Units;RE Method;RH;RH Units;RH Method;RU;RU Units;RU Method;S;S Units;S Method;SB;SB Units;SB Method;SC;SC Units;SC Method;SN;SN Units;SN Method;SR;SR Units;SR Method;TA;TA Units;TA Method;TH;TH Units;TH Method;TI;TI Units;TI Method;TL;TL Units;TL Method;U;U Units;U Method;V;V Units;V Method;W;W Units;W Method;Y;Y Units;Y Method;ZN;ZN Units;ZN Method;ZR;ZR Units;ZR Method;DELTA_O18;DELTA_O18 Units;DELTA_O18 Method;DELTA_C13;DELTA_C13 Units;DELTA_C13 Method;DELTA_MO98;DELTA_MO98 Units;DELTA_MO98 Method;DELTA_ZN66;DELTA_ZN66 Units;DELTA_ZN66 Method;DELTA_ZN68;DELTA_ZN68 Units;DELTA_ZN68 Method;OS188;OS188 Units;OS188 Method;FE3P_FET;FE3P_FET Units;FE3P_FET Method;TI;TI Units;TI Method;AS;AS Units;AS Method;AS;AS Units;AS Method;GER;GER Units;GER Method;H2O_M;H2O_M Units;H2O_M Method;H2O_P;H2O_P Units;H2O_P Method;H2O_M;H2O_M Units;H2O_M Method;H2O_P;H2O_P Units;H2O_P Method;INDIUM;INDIUM Units;INDIUM Method
CHAZYEM-AT/JK1;;nr;CHAZOT, 1996;14;48,2;0,01;;;CONTINENTAL_RIFT;;;;"EMP; IMP";GLASS;IGNEOUS:PLUTONIC:ULTRAMAFIC;PERIDOTITE;;58,44;wt%;EMP;0,4;wt%;EMP;18,79;wt%;EMP;;;;;;;;;;2,39;wt%;EMP;;;;0,16;wt%;EMP;0,04;wt%;EMP;2,78;wt%;EMP;6,03;wt%;EMP;;;;4,29;wt%;EMP;1,69;wt%;EMP;0;;;;;;;;;;;;;;;;;;;;;;;;;;;;;;;;;;;;;;;;;;;;;;;;;;;;;;;;;;;;;;;;;;;;;;;;;;;;;;;;;;;;;;;;;;;;;;;;;;;;;;;;;;;;;;;;;;;;;;;;;;;;;;;;;;;;;;;;;;;;;;;;;;;;;;;;;;;;;;;;;;;;;;;;;;;24,6;ppm;IMP;26,5;ppm;IMP;1,59;ppm;IMP;4,84;ppm;IMP;0,92;ppm;IMP;0,36;ppm;IMP;0,64;ppm;IMP;0,17;ppm;IMP;1;ppm;IMP;0,26;ppm;IMP;1,11;ppm;IMP;;;;0,98;ppm;IMP;0,11;ppm;IMP;;;;;;;0,06;wt%;EMP;;;;;;;;;;;;;;;;;;;;;;;;;;;;;;;61,4;ppm;IMP;;;;;;;;;;;;;;;;;;;;;;;;;;;;;;;1,81;ppm;IMP;;;;;;;;;;;;;;;;;;;;;;78,5;ppm;IMP;;;;;;;;;;;;;;;;;;;;;;;;;;;;;;;;;;;;;;;;;;;339;ppm;IMP;;;;8,73;ppm;IMP;;;;;;;;;;;;;;;;6,33;ppm;IMP;;;;78,3;ppm;IMP;;;;;;;;;;;;;;;;;;;;;;;;;;;;;;;;;;;;;;;;;;;;;;;;
CHAZYEM-AT/JK5;;nr;CHAZOT, 1996;14;48,2;0,01;;;CONTINENTAL_RIFT;;;;EMP;GLASS;IGNEOUS:PLUTONIC:ULTRAMAFIC;PERIDOTITE;;54,87;wt%;EMP;0,8;wt%;EMP;22,18;wt%;EMP;0,27;wt%;EMP;;;;;;;2,22;wt%;EMP;;;;;;;0,07;wt%;EMP;2,26;wt%;EMP;4,94;wt%;EMP;;;;7,16;wt%;EMP;0,57;wt%;EMP;0;;;;;;;;;;;;;;;;;;;;;;;;;;;;;;;;;;;;;;;;;;;;;;;;;;;;;;;;;;;;;;;;;;;;;;;;;;;;;;;;;;;;;;;;;;;;;;;;;;;;;;;;;;;;;;;;;;;;;;;;;;;;;;;;;;;;;;;;;;;;;;;;;;;;;;;;;;;;;;;;;;;;;;;;;;;;;;;;;;;;;;;;;;;;;;;;;;;;;;;;;;;;;;;;;;;;;;;;;;;;;;;;;;;;;;;;;;;;;;;;;;;;;;;;;;;;;;;;;;;;;;;;;;;;;;;;;;;;;;;;;;;;;;;;;;;;;;;;;;;;;;;;;;;;;;;;;;;;;;;;;;;;;;;;;;;;;;;;;;;;;;;;;;;;;;;;;;;;;;;;;;;;;;;;;;;;;;;;;;;;;;;;;;;;;;;;;;;;;;;;;;;;;;;;;;;;;;;;;;;;;;;;;;;;;;;;;;
CHAZYEM-AT/JK6;;nr;CHAZOT, 1996;14;48,2;0,01;;;CONTINENTAL_RIFT;;;;"EMP; IMP";GLASS;IGNEOUS:PLUTONIC:ULTRAMAFIC;PERIDOTITE;;50,18;wt%;EMP;0,54;wt%;EMP;20,28;wt%;EMP;0,03;wt%;EMP;;;;;;;2,35;wt%;EMP;;;;0,07;wt%;EMP;0,32;wt%;EMP;2,31;wt%;EMP;6,37;wt%;EMP;;;;5,91;wt%;EMP;0,83;wt%;EMP;0;;;;;;;;;;;;;;;;;;;;;;;;;;;;;;;;;;;;;;;;;;;;;;;;;;;;;;;;;;;;;;;;;;;;;;;;;;;;;;;;;;;;;;;;;;;;;;;;;;;;;;;;;;;;;;;;;;;;;;;;;;;;;;;;;;;;;;;;;;;;;;;;;;;;;;;;;;;;;;;;;;;;;;;;;;;112;ppm;IMP;106;ppm;IMP;10,4;ppm;IMP;35,5;ppm;IMP;12,4;ppm;IMP;0,84;ppm;IMP;0,67;ppm;IMP;0,48;ppm;IMP;11;ppm;IMP;0,45;ppm;IMP;1,66;ppm;IMP;;;;1,5;ppm;IMP;0,01;ppm;IMP;;;;;;;;;;;;;;;;;;;;;;;;;;;;;;;;;;;;;;;;1230;ppm;IMP;;;;;;;;;;;;;;;;;;;;;;;;;;;;;;;2,57;ppm;IMP;;;;;;;;;;;;;;;;;;;;;;140;ppm;IMP;;;;;;;;;;;;;;;;;;;;;;;;;;;;;;;;;;;;;;;;;;;1510;ppm;IMP;;;;10;ppm;IMP;;;;;;;;;;;;;;;;12,5;ppm;IMP;;;;203;ppm;IMP;;;;;;;;;;;;;;;;;;;;;;;;;;;;;;;;;;;;;;;;;;;;;;;;
CHAZYEM-AT/JK7;;nr;CHAZOT, 1996;14;48,2;0,01;;;CONTINENTAL_RIFT;;;;"EMP; IMP";GLASS;IGNEOUS:PLUTONIC:ULTRAMAFIC;PERIDOTITE;;53,86;wt%;EMP;0,29;wt%;EMP;20,75;wt%;EMP;0,06;wt%;EMP;;;;;;;2,06;wt%;EMP;;;;0,13;wt%;EMP;0,02;wt%;EMP;2,6;wt%;EMP;5,3;wt%;EMP;;;;7,41;wt%;EMP;1,31;wt%;EMP;0;;;;;;;;;;;;;;;;;;;;;;;;;;;;;;;;;;;;;;;;;;;;;;;;;;;;;;;;;;;;;;;;;;;;;;;;;;;;;;;;;;;;;;;;;;;;;;;;;;;;;;;;;;;;;;;;;;;;;;;;;;;;;;;;;;;;;;;;;;;;;;;;;;;;;;;;;;;;;;;;;;;;;;;;;;;117;ppm;IMP;57,1;ppm;IMP;3,23;ppm;IMP;6,51;ppm;IMP;0,42;ppm;IMP;2,36;ppm;IMP;0,02;ppm;IMP;0,02;ppm;IMP;1,89;ppm;IMP;0,36;ppm;IMP;0,92;ppm;IMP;;;;0,19;ppm;IMP;0,1;ppm;IMP;;;;;;;;;;;;;;;;;;;;;;;;;;;;;;;;;;;;;;;;3190;ppm;IMP;;;;;;;;;;;;;;;;;;;;;;;;;;;;;;;0,21;ppm;IMP;;;;;;;;;;;;;;;;;;;;;;2,61;ppm;IMP;;;;;;;;;;;;;;;;;;;;;;;;;;;;;;;;;;;;;;;;;;;1400;ppm;IMP;;;;10,9;ppm;IMP;;;;;;;;;;;;;;;;3,03;ppm;IMP;;;;1,45;ppm;IMP;;;;;;;;;;;;;;;;;;;;;;;;;;;;;;;;;;;;;;;;;;;;;;;;